Created on Wed Jan 23 17:02:22 2019 

         648 atoms
         708 bonds
        1128 angles
        1680 dihedrals
        1062 impropers

           9 atom types
          15 bond types
           3 angle types
           7 dihedral types
           1 improper types
           0.000000  33.663500 xlo xhi
           0.000000  29.153360 ylo yhi
           0.000000  59.359000 zlo zhi
         -16.831700   0.000000   0.000000 xy xz yz

Masses

    1    12.010700000 # C_R
    2     1.007940000 # H_
    3    14.006700000 # N_2
    4    14.006700000 # N_3
    5    14.006700000 # N_1
    6    14.006700000 # N_R
    7    15.999400000 # O_R
    8    12.010700000 # C_2
    9    12.010700000 # C_1

Bond Coeffs

    1      525.000000        1.390000  # C_R C_R
    2      350.000000        1.390000  # C_R C_R
    3      350.000000        1.020000  # C_R H_
    4      350.000000        1.392000  # C_R N_3
    5      350.000000        1.305000  # C_R N_2
    6      350.000000        1.275000  # N_2 C_2
    7      350.000000        1.022000  # N_3 H_
    8      350.000000        1.362000  # N_3 C_2
    9      350.000000        1.246000  # C_R N_1
   10      350.000000        1.360000  # C_R C_2
   11      350.000000        1.340000  # C_R N_R
   12      525.000000        1.300000  # N_R O_R
   13      350.000000        0.990000  # C_2 H_
   14      350.000000        1.292000  # C_R C_1
   15      350.000000        0.922000  # C_1 H_

Angle Coeffs

    1               cosine/squared       66.666667      120.000000 # C_R C_R C_R
    2               cosine/squared       54.500431      106.700000 # C_R N_3 C_2
    3                       cosine       50.000000 # C_R C_1 H_

Dihedral Coeffs

    1        3.125000               2             540        0.000000 # C_R C_R C_R H_
    2        1.250000               2             540        0.000000 # C_R C_R C_R C_R
    3        0.125000               6             180        0.000000 # C_R C_R N_3 C_2
    4        0.500000               3             720        0.000000 # C_R N_3 H_ C_2
    5        0.250000               3             720        0.000000 # C_R N_3 C_2 H_
    6        0.625000               2             540        0.000000 # C_R C_R C_2 N_2
    7        0.250000               6             180        0.000000 # C_R C_2 H_ N_3

Improper Coeffs

    1       13.333333        0.000000  # C_R C_R C_R C_R

Pair Coeffs

    1        0.095100        3.472990 # C_R C_R
    2        0.015200        2.846421 # H_ H_
    3        0.074400        3.262560 # N_2 N_2
    4        0.077400        3.262560 # N_3 N_3
    5        0.074400        3.262560 # N_1 N_1
    6        0.077400        3.262560 # N_R N_R
    7        0.095700        3.033154 # O_R O_R
    8        0.095100        3.472990 # C_2 C_2
    9        0.095100        3.472990 # C_1 C_1

Atoms

       1      444        1    -0.04214    0.64720   11.56834   12.86428
       2      444        1    -0.04237    0.20082   12.79512   12.30809
       3      444        1     0.12947   -0.98245   12.87267   11.53998
       4      444        1    -0.08006   -1.70133   11.68991   11.27702
       5      444        1     0.10972   -1.27734   10.45235   11.80532
       6      444        1    -0.11516   -0.12487   10.40658   12.61497
       7      444        2     0.15483    0.73321   13.65368   12.46776
       8      444        2     0.13897    0.19072    9.49729   12.96579
       9      444        2     0.12172   -2.53737   11.73160   10.68818
      10      444        1    -0.02656    1.87272   11.48351   13.59915
      11      444        1    -0.09108    3.02502   12.18960   13.16879
      12      444        1     0.11572    4.24364   12.09806   13.86745
      13      444        1    -0.08264    4.30827   11.31209   15.03504
      14      444        1     0.14307    3.18610   10.58704   15.48795
      15      444        1    -0.05732    1.97169   10.69928   14.77920
      16      444        2     0.15307    2.98833   12.77442   12.32946
      17      444        2     0.14254    5.16467   11.31792   15.59776
      18      444        2     0.12498    1.14373   10.22263   15.14782
      19      444        3    -0.30032    3.22902    9.96812   16.66326
      20      444        3    -0.23189    5.24480   12.90736   13.55878
      21      444        3    -0.28260   -1.95011    9.33549   11.57263
      22      444        4    -0.39471   -1.38338   14.06679   10.90069
      23      444        1    -0.00450    6.44593   23.89701   52.43537
      24      444        1    -0.07328    5.61174   22.89996   51.86789
      25      444        1     0.09161    6.14262   21.84111   51.09741
      26      444        1    -0.10390    7.52770   21.81400   50.84217
      27      444        1     0.10754    8.38326   22.79851   51.38056
      28      444        1    -0.08640    7.84010   23.81392   52.19318
      29      444        2     0.15902    4.60133   22.92941   52.02223
      30      444        2     0.13140    8.46608   24.53955   52.55468
      31      444        2     0.12747    7.91449   21.07234   50.25214
      32      444        1    -0.01330    5.89873   24.99347   53.17557
      33      444        1    -0.07506    4.71899   25.64563   52.73454
      34      444        1     0.10787    4.18560   26.74325   53.43557
      35      444        1    -0.08758    4.82217   27.18405   54.61265
      36      444        1     0.09995    6.00494   26.56862   55.07328
      37      444        1    -0.09077    6.51780   25.46225   54.36394
      38      444        2     0.13769    4.24434   25.33485   51.88214
      39      444        2     0.14587    4.39482   27.93475   55.16410
      40      444        2     0.14162    7.34273   24.98210   54.73553
      41      444        3    -0.30884    6.52117   26.91992   56.24621
      42      444        3    -0.24700    3.01461   27.25548   53.09188
      43      444        3    -0.29581    9.68839   22.77635   51.15499
      44      444        4    -0.41122    5.31365   20.89742   50.45159
      45      444        1    -0.03563   -7.12114   22.76994   32.62193
      46      444        1    -0.11815   -5.84664   22.53438   32.04555
      47      444        1     0.07901   -5.20047   23.50898   31.25251
      48      444        1    -0.00805   -5.86835   24.72059   30.98659
      49      444        1     0.06811   -7.14100   24.98268   31.53744
      50      444        1    -0.07860   -7.74357   24.01829   32.37024
      51      444        2     0.17597   -5.36862   21.64404   32.20523
      52      444        2     0.12590   -8.68077   24.20545   32.73827
      53      444        2     0.09232   -5.42416   25.41473   30.37994
      54      444        1    -0.04444   -7.79626   21.75686   33.37460
      55      444        1    -0.07563   -7.77741   20.40531   32.94425
      56      444        1     0.15074   -8.46028   19.40156   33.65596
      57      444        1    -0.04654   -9.15290   19.74295   34.83424
      58      444        1     0.12039   -9.20508   21.07875   35.28477
      59      444        1    -0.09751   -8.50538   22.06968   34.56475
      60      444        2     0.13418   -7.27616   20.14176   32.09126
      61      444        2     0.14284   -9.58700   19.00274   35.39458
      62      444        2     0.14642   -8.49831   23.02707   34.92802
      63      444        3    -0.28311   -9.76204   21.35892   36.45889
      64      444        3    -0.24447   -8.31586   18.12931   33.32058
      65      444        3    -0.49413   -7.77521   26.12258   31.30356
      66      444        4    -0.00729   -3.98134   23.24164   30.59066
      67      444        1    -0.04177   16.12990   17.58939   12.82985
      68      444        1    -0.04305   16.55506   16.36378   12.25585
      69      444        1     0.12786   17.71713   16.28448   11.45629
      70      444        1    -0.08212   18.43399   17.46607   11.18086
      71      444        1     0.11111   18.03323   18.70246   11.73053
      72      444        1    -0.11432   16.90332   18.74823   12.57105
      73      444        2     0.15300   16.01948   15.50784   12.42028
      74      444        2     0.13896   16.60085   19.65694   12.93492
      75      444        2     0.12077   19.25252   17.42380   10.56709
      76      444        1    -0.02658   14.91734   17.67918   13.58549
      77      444        1    -0.09227   13.74972   16.99553   13.15930
      78      444        1     0.11455   12.53901   17.10019   13.86982
      79      444        1    -0.08997   12.49861   17.87684   15.04513
      80      444        1     0.14290   13.63577   18.58177   15.49211
      81      444        1    -0.05821   14.84193   18.45641   14.77149
      82      444        2     0.15118   13.76840   16.42267   12.31046
      83      444        2     0.12523   11.64508   17.88646   15.61142
      84      444        2     0.12440   15.67948   18.92170   15.13239
      85      444        3    -0.30430   13.60631   19.20244   16.66741
      86      444        3    -0.24782   11.51362   16.32646   13.54513
      87      444        3    -0.28275   18.70213   19.82020   11.49012
      88      444        4    -0.38465   18.08540   15.09328   10.79206
      89      444        1    -0.00355   10.33218    5.07997   52.45555
      90      444        1    -0.07522   11.19009    6.05865   51.89104
      91      444        1     0.08974   10.68801    7.10263   51.08139
      92      444        1    -0.10579    9.31134    7.12800   50.78162
      93      444        1     0.10798    8.43322    6.16156   51.31645
      94      444        1    -0.08475    8.94642    5.16481   52.17122
      95      444        2     0.15582   12.19478    6.03037   52.08099
      96      444        2     0.13182    8.30547    4.45463   52.53687
      97      444        2     0.12690    8.94626    7.86237   50.16845
      98      444        1    -0.01349   10.84740    4.01209   53.25689
      99      444        1    -0.08261   12.02478    3.32144   52.87106
     100      444        1     0.13492   12.55683    2.28038   53.66232
     101      444        1    -0.07315   11.90123    1.92500   54.85365
     102      444        1     0.09649   10.70348    2.55879   55.24364
     103      444        1    -0.09635   10.20240    3.61793   54.45891
     104      444        2     0.11574   12.51610    3.58878   52.01451
     105      444        2     0.14179   12.30721    1.20141   55.45674
     106      444        2     0.14141    9.36890    4.11704   54.78242
     107      444        3    -0.31132   10.15342    2.24102   56.41064
     108      444        3    -0.31074   13.71721    1.68798   53.43141
     109      444        3    -0.29545    7.13196    6.18926   51.06595
     110      444        4    -0.41176   11.53599    8.04195   50.45396
     111      444        1    -0.03778   24.07463    6.39421   32.66110
     112      444        1    -0.11813   22.79626    6.64463   32.09897
     113      444        1     0.08414   22.14201    5.68520   31.29347
     114      444        1    -0.00816   22.80821    4.48000   30.99430
     115      444        1     0.07178   24.08624    4.20566   31.52556
     116      444        1    -0.07796   24.69505    5.15227   32.37440
     117      444        2     0.17946   22.31622    7.52740   32.29011
     118      444        2     0.12700   25.63106    4.95257   32.73946
     119      444        2     0.09780   22.35358    3.79402   30.38528
     120      444        1    -0.04200   24.73865    7.37347   33.46779
     121      444        1    -0.08569   24.73444    8.74338   33.09798
     122      444        1     0.15362   25.36328    9.72002   33.89992
     123      444        1    -0.04141   26.00389    9.32295   35.08592
     124      444        1     0.12080   26.07290    7.96499   35.45691
     125      444        1    -0.09700   25.41242    7.00468   34.66269
     126      444        2     0.12525   24.25373    9.04366   32.24559
     127      444        2     0.13158   26.42334   10.03371   35.69494
     128      444        2     0.14632   25.40754    6.03008   34.97610
     129      444        3    -0.28995   26.63491    7.64168   36.61619
     130      444        3    -0.33487   25.28855   11.02143   33.68386
     131      444        3    -0.48130   24.71053    3.06314   31.27744
     132      444        4    -0.00795   20.90235    5.94670   30.66783
     133      444        1    -0.00986    9.56735    6.39304   26.06216
     134      444        1    -0.09464   10.97246    6.54405   26.14823
     135      444        1     0.10657   11.75985    5.58899   26.82136
     136      444        1    -0.10781   11.14162    4.48612   27.44107
     137      444        1     0.11672    9.73852    4.33044   27.38409
     138      444        1    -0.06505    8.96443    5.26539   26.66644
     139      444        2     0.14553   11.42641    7.35423   25.71373
     140      444        2     0.14503    7.94527    5.15840   26.64329
     141      444        2     0.12995   11.70985    3.79635   27.94206
     142      444        1    -0.01687    8.76515    7.39941   25.46145
     143      444        1    -0.06047    8.86597    8.73901   25.90724
     144      444        1     0.12015    8.08363    9.75646   25.33027
     145      444        1    -0.08405    7.22774    9.43723   24.25527
     146      444        1     0.08905    7.11244    8.11163   23.78931
     147      444        1    -0.08958    7.88788    7.09797   24.39002
     148      444        2     0.13265    9.52022    8.98186   26.65813
     149      444        2     0.15404    6.74315   10.19027   23.75666
     150      444        2     0.16232    7.85270    6.14786   24.00893
     151      444        3    -0.21881    6.47367    7.90377   22.64843
     152      444        3    -0.29425    8.34167   11.01851   25.63003
     153      444        3    -0.27121    9.12702    3.31386   27.97530
     154      444        5    -0.21301   13.00355    5.73155   26.88844
     155      444        1    -0.05475   17.60638   17.68035   45.83346
     156      444        1    -0.10716   17.04184   16.38419   45.91181
     157      444        1     0.12641   15.81918   16.16962   46.57841
     158      444        1    -0.06239   15.16409   17.25004   47.19931
     159      444        1     0.15640   15.72274   18.54649   47.14885
     160      444        1    -0.05706   16.92133   18.76019   46.43773
     161      444        2     0.15114   17.52373   15.59034   45.47671
     162      444        2     0.14953   17.33337   19.69834   46.42230
     163      444        2     0.12391   14.28211   17.09553   47.69733
     164      444        1    -0.05301   18.88155   17.88209   45.24046
     165      444        1    -0.08097   19.99194   17.12556   45.68625
     166      444        1     0.15159   21.26476   17.29815   45.11165
     167      444        1    -0.03757   21.41793   18.20656   44.04319
     168      444        1     0.13635   20.32706   18.97067   43.57900
     169      444        1    -0.07742   19.06014   18.79779   44.17437
     170      444        2     0.13770   19.87378   16.43112   46.43061
     171      444        2     0.13857   22.31136   18.24913   43.54339
     172      444        2     0.15707   18.25407   19.30127   43.79151
     173      444        3    -0.25817   20.46828   19.62458   42.43694
     174      444        3    -0.25416   22.22433   16.43550   45.40251
     175      444        3    -0.26916   15.13885   19.57706   47.74363
     176      444        5    -0.23175   15.32820   15.01777   46.63955
     177      444        1    -0.03438   23.32174    5.07385    6.25822
     178      444        1    -0.05211   22.48033    6.20879    6.34845
     179      444        1     0.15698   22.90651    7.37026    7.02276
     180      444        1    -0.08478   24.17276    7.39446    7.63832
     181      444        1     0.10331   25.01721    6.26418    7.57599
     182      444        1     0.00400   24.60163    5.12399    6.85775
     183      444        2     0.13214   21.54987    6.19013    5.91809
     184      444        2     0.13537   25.20892    4.29895    6.83400
     185      444        2     0.11623   24.48062    8.23203    8.14227
     186      444        1    -0.00457   22.85752    3.87040    5.66285
     187      444        1    -0.07839   21.65052    3.28413    6.11279
     188      444        1     0.08001   21.16425    2.09496    5.53938
     189      444        1    -0.07145   21.87152    1.51014    4.46855
     190      444        1     0.13478   23.07398    2.07630    3.99783
     191      444        1    -0.11162   23.55840    3.26051    4.59320
     192      444        2    -0.00897   21.11089    3.73134    6.86071
     193      444        2     0.14463   21.46048    0.71542    3.96874
     194      444        2     0.15450   24.39510    3.70802    4.20796
     195      444        3    -0.25858   23.56917    1.62792    2.85517
     196      444        3    -0.22547   19.93923    1.69323    5.83558
     197      444        3    -0.26836   26.20317    6.25077    8.16602
     198      444        5    -0.26416   22.15295    8.36935    7.09518
     199      444        1    -0.01041    7.28364   22.75216   26.07166
     200      444        1    -0.09684    5.88139   22.58919   26.18147
     201      444        1     0.10734    5.09669   23.53667   26.86826
     202      444        1    -0.10769    5.71526   24.64538   27.47728
     203      444        1     0.11715    7.11516   24.81476   27.39537
     204      444        1    -0.06432    7.88572   23.88593   26.66525
     205      444        2     0.14269    5.42693   21.77523   25.75409
     206      444        2     0.14515    8.90320   24.00284   26.62489
     207      444        2     0.12983    5.14871   25.33048   27.98658
     208      444        1    -0.01735    8.08551   21.75220   25.45789
     209      444        1    -0.05988    7.98973   20.40852   25.89299
     210      444        1     0.11764    8.77392   19.39894   25.30474
     211      444        1    -0.09673    9.62914   19.72866   24.23331
     212      444        1     0.09128    9.74040   21.05835   23.77803
     213      444        1    -0.08967    8.96042   22.06414   24.38765
     214      444        2     0.13258    7.34019   20.15692   26.64447
     215      444        2     0.13898   10.11861   18.98059   23.73232
     216      444        2     0.16191    8.99291   23.01716   24.01368
     217      444        3    -0.22722   10.37816   21.27554   22.63834
     218      444        3    -0.30439    8.53171   18.13222   25.59679
     219      444        3    -0.27120    7.72716   25.83921   27.97293
     220      444        5    -0.21721    3.85569   23.38245   26.95611
     221      444        1    -0.05597   -0.75876   11.48467   45.89816
     222      444        1    -0.10870   -0.21441   12.78666   46.01272
     223      444        1     0.12764    1.00016   13.00240   46.69416
     224      444        1    -0.06141    1.66721   11.91644   47.29310
     225      444        1     0.15646    1.12842   10.61357   47.20643
     226      444        1    -0.05686   -0.06243   10.40104   46.48166
     227      444        2     0.14890   -0.70270   13.58342   45.59187
     228      444        2     0.15047   -0.45848    9.45677   46.43714
     229      444        2     0.12334    2.54515   12.07095   47.79883
     230      444        1    -0.05286   -2.02299   11.27681   45.28320
     231      444        1    -0.08449   -3.15004   12.01439   45.71949
     232      444        1     0.14583   -4.41545   11.82198   45.13362
     233      444        1    -0.04593   -4.54169   10.91589   44.05981
     234      444        1     0.13696   -3.43517   10.17132   43.60512
     235      444        1    -0.07822   -2.17700   10.35994   44.21414
     236      444        2     0.13631   -3.05258   12.70095   46.47454
     237      444        2     0.13802   -5.43327   10.84913   43.55882
     238      444        2     0.15580   -1.36184    9.86346   43.84256
     239      444        3    -0.26633   -3.56293    9.49350   42.47611
     240      444        3    -0.28577   -5.40381   12.64644   45.44406
     241      444        3    -0.27080    1.72477    9.57425   47.77212
     242      444        5    -0.23726    1.47499   14.15891   46.78558
     243      444        1    -0.03156   -6.48540   24.05123    6.31639
     244      444        1    -0.05239   -5.62614   22.93087    6.41908
     245      444        1     0.15810   -6.03785   21.76706    7.09874
     246      444        1    -0.09049   -7.30629   21.72683    7.70836
     247      444        1     0.09144   -8.16841   22.84341    7.63416
     248      444        1     0.00303   -7.76697   23.98418    6.90998
     249      444        2     0.12853   -4.69467   22.96060    5.99170
     250      444        2     0.13991   -8.38823   24.79901    6.87615
     251      444        2     0.11928   -7.60404   20.88692    8.21410
     252      444        1    -0.00455   -6.04171   25.25585    5.70737
     253      444        1    -0.07657   -4.84329   25.86748    6.14722
     254      444        1     0.08002   -4.38732   27.06715    5.56906
     255      444        1    -0.07215   -5.11613   27.63505    4.50297
     256      444        1     0.13012   -6.31220   27.04499    4.04650
     257      444        1    -0.11871   -6.76548   25.85116    4.64484
     258      444        2    -0.00766   -4.29289   25.43776    6.89692
     259      444        2     0.14376   -4.73371   28.44610    4.00673
     260      444        2     0.15872   -7.60033   25.38995    4.27147
     261      444        3    -0.25982   -6.83634   27.49570    2.91928
     262      444        3    -0.24110   -3.18216   27.51727    5.88070
     263      444        3    -0.25102   -9.36010   22.84457    8.21291
     264      444        5    -0.26549   -5.26965   20.77993    7.18066
     265      444        1    -0.00429    4.15173    8.65155   18.38289
     266      444        1    -0.05654    4.95292    7.53323   18.71708
     267      444        1     0.24983    5.26886    7.21342   20.06275
     268      444        1     0.01599    4.76677    8.03292   21.10984
     269      444        1    -0.17041    3.90448    9.10547   20.78099
     270      444        2     0.14676    5.37287    6.97086   17.97094
     271      444        1    -0.10613    3.60639    9.41245   19.44304
     272      444        2     0.13612    3.55589    9.73781   21.50873
     273      444        2     0.17647    3.05330   10.25265   19.25428
     274      444        6     0.22500    6.11212    6.11783   20.37201
     275      444        7    -0.34917    5.61895    5.03333   19.97371
     276      444        7    -0.32044    7.25298    6.25369   19.86211
     277      444        8     0.01042    4.07633    9.08302   17.06037
     278      444        2     0.12212    4.78898    8.78799   16.42820
     279      444        8    -0.00192    5.20826    7.94458   22.42524
     280      444        2     0.11388    4.59054    8.19530   23.16604
     281      444        1     0.03502    7.21750   28.38429   57.95279
     282      444        1    -0.05829   24.62132    0.48424   58.27867
     283      444        1     0.16224   24.75126    0.92212    0.26237
     284      444        1     0.02032   24.29983    0.08192    1.31658
     285      444        1    -0.13797    6.96503   27.95224    0.99545
     286      444        2     0.17438   24.89467    1.12561   57.52777
     287      444        1    -0.08216    6.83727   27.53622   59.01947
     288      444        2     0.12800    6.59675   27.33711    1.72794
     289      444        2     0.15791    6.38450   26.63655   58.83664
     290      444        6     0.25905   25.28298    2.20050    0.56450
     291      444        7    -0.29987   26.46608    2.31215    0.15611
     292      444        7    -0.32378   24.59288    3.11999    0.05698
     293      444        8    -0.00748    6.87750   28.09626   56.63264
     294      444        2     0.13146    6.78375   28.85687   55.99453
     295      444        8     0.13387   24.16804    0.51252    2.63198
     296      444        2     0.07509    7.43245   29.00497    3.37159
     297      444        1     0.04412  -11.37436   21.24260   38.17080
     298      444        1    -0.05532   20.91921   21.11053   38.50143
     299      444        1     0.11713   20.47973   21.00354   39.84592
     300      444        1     0.04446   21.43678   21.03269   40.89657
     301      444        1    -0.11729  -10.86536   21.24085   40.57069
     302      444        2     0.16173   20.22439   21.02540   37.75292
     303      444        1    -0.07060  -10.44625   21.33880   39.23392
     304      444        2     0.12507  -10.14581   21.22948   41.30081
     305      444        2     0.15013   -9.44140   21.39711   39.04813
     306      444        6     0.28140   19.10811   20.82308   40.15221
     307      444        7    -0.33773   18.41717   21.79126   39.74679
     308      444        7    -0.29706   18.65618   19.76510   39.64588
     309      444        8    -0.00041  -10.95912   21.08779   36.84947
     310      444        2     0.10320  -11.57499   20.62921   36.21315
     311      444        8     0.09737   21.13550   20.70034   42.21197
     312      444        2     0.08192  -12.00437   21.11286   42.95277
     313      444        1    -0.00516   12.70851   20.55049   18.37814
     314      444        1    -0.05972   11.89655   21.66182   18.70996
     315      444        1     0.24862   11.57793   21.98222   20.05503
     316      444        1     0.01493   12.08927   21.17117   21.10450
     317      444        1    -0.17585   12.96418   20.10824   20.77802
     318      444        2     0.14572   11.46953   22.21719   17.96263
     319      444        1    -0.11123   13.26446   19.80038   19.44067
     320      444        2     0.13323   13.32034   19.48202   21.50695
     321      444        2     0.17425   13.82765   18.96601   19.25369
     322      444        6     0.22554   10.72237   23.06876   20.36192
     323      444        7    -0.34850   11.20241   24.15793   19.95946
     324      444        7    -0.32544    9.58286   22.91833   19.85262
     325      444        8     0.00674   12.78425   20.11553   17.05622
     326      444        2     0.12209   12.08691   20.43009   16.41633
     327      444        8    -0.00279   11.64475   21.25717   22.41871
     328      444        2     0.11460   12.26702   21.01666   23.15951
     329      444        1     0.03492    9.36401    0.77577   58.07981
     330      444        1    -0.06416   -7.98948   28.64871   58.38611
     331      444        1     0.16349   -8.09703   28.18314    0.36150
     332      444        1     0.01837   -7.68011   29.02479    1.42818
     333      444        1    -0.14400    9.59258    1.18217    1.12960
     334      444        2     0.17619   -8.23101   28.00530   57.62631
     335      444        1    -0.08885    9.70132    1.62472   59.15955
     336      444        2     0.12038    9.93562    1.79964    1.87218
     337      444        2     0.15346   10.11555    2.54567   58.99216
     338      444        6     0.26104   -8.56479   26.87502    0.64167
     339      444        7    -0.29517   -9.74133   26.71235    0.23209
     340      444        7    -0.32301   -7.83093   25.99926    0.11812
     341      444        8    -0.00899    9.71142    1.08363   56.76501
     342      444        2     0.13215    9.76107    0.33643   56.10553
     343      444        8     0.13656   -7.51364   28.57204    2.73051
     344      444        2     0.07338    9.17701    0.04781    3.49090
     345      444        1     0.03772   28.29991    7.71864   38.28181
     346      444        1    -0.05621   -3.99382    7.91339   38.58394
     347      444        1     0.11278   -3.53381    8.05828   39.91715
     348      444        1     0.04605   -4.46831    7.99822   40.98561
     349      444        1    -0.13333   27.83939    7.72156   40.69119
     350      444        2     0.16037   -3.31853    8.02592   37.82177
     351      444        1    -0.07590   27.39890    7.58949   39.36392
     352      444        2     0.11983   27.13481    7.71048   41.43555
     353      444        2     0.14739   26.39371    7.48571   39.19950
     354      444        6     0.28169   -2.16707    8.31133   40.19317
     355      444        7    -0.33487   -1.43658    7.37493   39.78359
     356      444        7    -0.30015   -1.77994    9.38476   39.66546
     357      444        8    -0.00467   27.85471    7.86295   36.96879
     358      444        2     0.10489   28.46385    8.30754   36.31524
     359      444        8     0.10246   -4.15692    8.36905   42.28795
     360      444        2     0.07169   29.03293    7.93234   43.04833
     361      444        1     0.00985   -3.43737    8.23233   10.21272
     362      444        1    -0.15556   -3.50268    6.92101    9.68976
     363      444        1     0.24012   28.91864    6.29013    9.43215
     364      444        1    -0.06557   27.71366    6.99768    9.68917
     365      444        1    -0.19302   27.78014    8.30754   10.21806
     366      444        2     0.16172   -2.63736    6.41053    9.48972
     367      444        1    -0.09697   -4.64471    8.91830   10.47152
     368      444        2     0.13627   26.92560    8.84251   10.40029
     369      444        2     0.13905   -4.63444    9.87832   10.82827
     370      444        6     0.26513   28.86225    4.96977    8.92047
     371      444        7    -0.32751   29.42258    4.88727    7.79859
     372      444        7    -0.34007   29.40406    4.14969    9.70342
     373      444        8    -0.02625   -2.22666    8.87399   10.39851
     374      444        2     0.13665   -1.44465    8.55564    9.87021
     375      444        8    -0.00705   26.47484    6.44085    9.42027
     376      444        2     0.12291   25.72044    6.68749   10.02217
     377      444        1     0.02535   11.39547   22.05160   49.79627