Created on Wed Jan 23 16:07:17 2019 

         648 atoms
         720 bonds
        1248 angles
        1936 dihedrals
         768 impropers

           6 atom types
          11 bond types
           4 angle types
           7 dihedral types
           1 improper types
           0.000000  43.645200 xlo xhi
           0.000000  43.645200 ylo yhi
           0.000000  29.134500 zlo zhi
           0.000000   0.000000   0.000000 xy xz yz

Masses

    1    12.010700000 # C_R
    2     1.007940000 # H_
    3    12.010700000 # C_3
    4    14.006700000 # N_3
    5    14.006700000 # N_R
    6    15.999400000 # O_3

Bond Coeffs

    1      525.000000        1.390000  # C_R C_R
    2      350.000000        1.460000  # C_R C_3
    3      350.000000        1.390000  # C_R C_R
    4      350.000000        1.020000  # C_R H_
    5      350.000000        1.392000  # C_R N_3
    6      350.000000        1.462000  # N_3 C_3
    7      350.000000        1.022000  # N_3 H_
    8      525.000000        1.340000  # C_R N_R
    9      350.000000        1.420000  # C_3 O_3
   10      350.000000        1.090000  # C_3 H_
   11      350.000000        0.980000  # O_3 H_

Angle Coeffs

    1       66.666667      120.000000 # C_R C_R C_3
    2       56.249847      109.471000 # C_R C_3 C_R
    3       54.500431      106.700000 # C_R N_3 H_
    4       53.348970      104.510000 # C_3 O_3 H_

Dihedral Coeffs

    1        3.125000               2             540        0.000000 # C_3 C_R C_R C_R
    2        0.083333               6             180        0.000000 # C_R C_R C_3 C_R
    3        1.250000               2             540        0.000000 # C_R C_R C_R C_R
    4        0.125000               6             180        0.000000 # C_R C_R N_3 H_
    5        0.166667               3             720        0.000000 # C_R N_3 C_3 C_R
    6        6.250000               2             540        0.000000 # C_R C_R N_R C_R
    7        0.333333               3             720        0.000000 # C_R C_3 O_3 H_

Improper Coeffs

    1       13.333333        0.000000  # C_R C_R C_R C_3

Pair Coeffs

    1        0.095100        3.472990 # C_R C_R
    2        0.015200        2.846421 # H_ H_
    3        0.095100        3.472990 # C_3 C_3
    4        0.077400        3.262560 # N_3 N_3
    5        0.077400        3.262560 # N_R N_R
    6        0.095700        3.033154 # O_3 O_3

Atoms

       1      444        1     0.00462    4.56660    4.58798    2.78264
       2      444        1     0.01806    4.72634    4.93453    1.43575
       3      444        1     0.01930    5.72669    5.89603    1.34077
       4      444        1     0.00379    6.17623    6.20635    2.63085
       5      444        1    -0.11172    7.25034    7.10588    2.80740
       6      444        1     0.12730    7.88320    7.67195    1.67407
       7      444        1    -0.08922    7.41488    7.34592    0.38021
       8      444        1    -0.15703    6.32594    6.47040    0.20511
       9      444        1    -0.14929    3.92239    4.35492    0.43731
      10      444        1    -0.05744    2.93383    3.42440    0.81285
      11      444        1     0.13664    2.77016    3.03727    2.16469
      12      444        1    -0.11364    3.59506    3.63434    3.15323
      13      444        1     0.00414    6.37089    4.61548    4.52167
      14      444        1     0.01767    6.19500    4.96028    5.86740
      15      444        1     0.01943    5.17196    5.89472    5.95538
      16      444        1     0.00395    4.72416    6.19500    4.66210
      17      444        1    -0.15717    4.55830    6.45905    7.08842
      18      444        1    -0.08920    3.45364    7.31188    6.90779
      19      444        1     0.12695    2.98490    7.62351    5.61101
      20      444        1    -0.11150    3.63259    7.07096    4.47972
      21      444        1    -0.11418    7.37036    3.68933    4.15837
      22      444        1     0.13346    8.20181    3.12020    5.15593
      23      444        1    -0.05808    8.01806    3.49773    6.50690
      24      444        1    -0.14906    7.00549    4.40380    6.87370
      25      444        2     0.14472    8.63215    3.11932    7.23177
      26      444        2     0.11024    6.88939    4.67527    7.85233
      27      444        2     0.11213    4.86949    6.21551    8.03122
      28      444        2     0.13403    2.97617    7.68941    7.72997
      29      444        2     0.11514    3.27601    7.25427    3.53926
      30      444        2     0.11661    7.50741    3.45452    3.17275
      31      444        2     0.11482    7.60867    7.29399    3.74641
      32      444        2     0.13419    7.88538    7.72520   28.68932
      33      444        2     0.11237    6.02042    6.21464   28.39856
      34      444        2     0.11513    3.47110    3.40171    4.14118
      35      444        2     0.10949    4.02278    4.62945   28.59260
      36      444        2     0.14394    2.32105    3.03683    0.09265
      37      444        3    -0.00951    5.46001    5.39804    3.64910
      38      444        4    -0.48242    1.80997    8.39952    5.50526
      39      444        2     0.24162    1.18366    8.07000    4.76029
      40      444        4    -0.46926    1.73097    2.12465    2.49974
      41      444        2     0.22820    1.52016    2.16000    3.50488
      42      444        4    -0.48158    9.05725    8.45364    1.77546
      43      444        2     0.24083    9.67832    8.14245    2.53237
      44      444        4    -0.47221    9.25584    2.22503    4.83808
      45      444        2     0.23124    9.54913    2.32411    3.85828
      46      444        1     0.00291   28.03157    6.28622   17.24850
      47      444        1     0.01798   27.71121    5.90127   15.94007
      48      444        1     0.01781   26.70257    4.94675   15.99076
      49      444        1     0.00461   26.41844    4.66873   17.33299
      50      444        1    -0.11425   25.40762    3.74083   17.66104
      51      444        1     0.13312   24.66696    3.10667   16.63143
      52      444        1    -0.05918   24.95152    3.42833   15.28279
      53      444        1    -0.14826   25.98155    4.33004   14.95270
      54      444        1    -0.14969   28.41826    6.41192   14.83674
      55      444        1    -0.05855   29.48059    7.30533   15.06632
      56      444        1     0.13340   29.80662    7.72127   16.37738
      57      444        1    -0.11555   29.07207    7.21324   17.47604
      58      444        1     0.00544   26.41189    6.34950   19.15098
      59      444        1     0.01842   26.73356    6.08981   20.48884
      60      444        1     0.01845   27.75878    5.15232   20.52438
      61      444        1     0.00327   28.06692    4.77217   19.21129
      62      444        1    -0.15925   28.47675    4.63687   21.61867
      63      444        1    -0.08966   29.54256    3.75087   21.37540
      64      444        1     0.12692   29.87208    3.35893   20.05736
      65      444        1    -0.11179   29.12095    3.86522   18.96889
      66      444        1    -0.11031   25.36354    7.24074   18.83866
      67      444        1     0.12945   24.63466    7.86836   19.88051
      68      444        1    -0.09020   24.97946    7.59252   21.22565
      69      444        1    -0.15916   26.03436    6.71350   21.53797
      70      444        2     0.13367   24.44699    8.01806   21.98810
      71      444        2     0.11121   26.25957    6.50837   22.51368
      72      444        2     0.11096   28.26463    4.93409   22.57341
      73      444        2     0.13463   30.09293    3.40476   22.16553
      74      444        2     0.11796   29.37322    3.62081   18.00862
      75      444        2     0.11493   25.10996    7.39961   17.86120
      76      444        2     0.11230   25.19245    3.55621   18.64317
      77      444        2     0.14782   24.39461    3.01676   14.53112
      78      444        2     0.11248   26.16879    4.55961   13.97436
      79      444        2     0.11581   29.33045    7.46638   18.43194
      80      444        2     0.11217   28.20746    6.09854   13.88667
      81      444        2     0.14510   30.03095    7.63966   14.27153
      82      444        3    -0.00924   27.23330    5.51850   18.23616
      83      444        4    -0.48170   31.00861    2.53928   19.87556
      84      444        2     0.23914   31.55897    2.80377   19.04930
      85      444        4    -0.48048   30.92961    8.56013   16.54665
      86      444        2     0.23748   31.51402    8.28124   17.34435
      87      444        4    -0.46977   23.59198    2.22110   16.91083
      88      444        2     0.23034   23.27118    2.31232   17.88305
      89      444        4    -0.46955   23.50992    8.69631   19.62296
      90      444        2     0.23330   23.13239    8.54791   18.67842
      91      444        1     0.00467    6.38136   26.42935   19.08135
      92      444        1     0.01781    6.15441   26.68118   20.43960
      93      444        1     0.01834    5.14446   27.62785   20.55235
      94      444        1     0.00277    4.76169   28.03331   19.26694
      95      444        1    -0.11599    3.70330   28.95423   19.10437
      96      444        1     0.13224    3.00846   29.42472   20.24469
      97      444        1    -0.05935    3.39822   28.98958   21.53156
      98      444        1    -0.15051    4.48062   28.10620   21.69588
      99      444        1    -0.14799    6.92257   26.05051   21.43483
     100      444        1    -0.05891    7.93906   25.15797   21.04443
     101      444        1     0.13371    8.16427   24.85900   19.67948
     102      444        1    -0.11279    7.37866   25.51018   18.69386
     103      444        1     0.00285    4.65694   26.57163   17.26802
     104      444        1     0.01794    4.89525   27.00590   15.95726
     105      444        1     0.01910    5.91916   27.94428   15.97794
     106      444        1     0.00546    6.30629   28.15465   17.30677
     107      444        1    -0.15761    6.57297   28.59721   14.91745
     108      444        1    -0.09025    7.65057   29.45484   15.20850
     109      444        1     0.12954    8.06040   29.68223   16.54432
     110      444        1    -0.10980    7.37517   29.02799   17.59869
     111      444        1    -0.11456    3.63783   25.62933   17.52353
     112      444        1     0.13455    2.83999   25.15622   16.45342
     113      444        1    -0.05839    3.08310   25.62104   15.14091
     114      444        1    -0.15060    4.12360   26.53192   14.88103
     115      444        2     0.14281    2.49432   25.30330   14.36739
     116      444        2     0.11004    4.28334   26.87104   13.93008
     117      444        2     0.11217    6.30280   28.42350   13.94698
     118      444        2     0.13259    8.15249   29.89958   14.43614
     119      444        2     0.11477    7.67632   29.15237   18.56771
     120      444        2     0.11814    3.44404   25.33429   18.48293
     121      444        2     0.11574    3.39603   29.22002   18.16623
     122      444        2     0.14498    2.87927   29.30033   22.35636
     123      444        2     0.11215    4.73681   27.77711   22.62906
     124      444        2     0.11575    7.54975   25.34346   17.70008
     125      444        2     0.11209    6.77635   26.26132   22.42395
     126      444        2     0.14694    8.52653   24.73286   21.76464
     127      444        3    -0.00908    5.52592   27.29440   18.23062
     128      444        4    -0.47070    9.20565   30.48835   16.77186
     129      444        2     0.23465    9.62813   30.30985   17.69134
     130      444        4    -0.46882    9.21874   23.96994   19.33744
     131      444        2     0.23022    9.46708   24.05069   18.34337
     132      444        4    -0.48065    1.86147   30.24089   20.14825
     133      444        2     0.23934    1.20504   29.90395   19.43359
     134      444        4    -0.48037    1.74668   24.28637   16.65707
     135      444        2     0.23642    1.20679   24.52686   17.49760
     136      444        1     0.00351   26.45423   28.16076    4.53245
     137      444        1     0.01799   26.65980   27.72823    5.84904
     138      444        1     0.01909   27.67018   26.77328    5.85137
     139      444        1     0.00536   28.08176   26.55461    4.53100
     140      444        1    -0.10983   29.14932   25.67123    4.26267
     141      444        1     0.12927   29.80880   25.01568    5.33220
     142      444        1    -0.09005   29.37278   25.24831    6.65840
     143      444        1    -0.15732   28.29606   26.11511    6.92585
     144      444        1    -0.14994   25.87855   28.22622    6.90808
     145      444        1    -0.05747   24.86031   29.15587    6.62402
     146      444        1     0.13539   24.64557   29.61763    5.30481
     147      444        1    -0.11489   25.45301   29.11528    4.25335
     148      444        1     0.00465   28.22011   28.27511    2.75612
     149      444        1     0.01802   28.02415   28.01935    1.39409
     150      444        1     0.01850   27.00372   27.08796    1.26036
     151      444        1     0.00298   26.58255   26.69253    2.53703
     152      444        1    -0.15126   26.36519   26.61353    0.10051
     153      444        1    -0.06079   25.26577   25.74805    0.23861
     154      444        1     0.12976   24.83019   25.33211    1.51674
     155      444        1    -0.11628   25.50233   25.79344    2.67455
     156      444        1    -0.11309   29.22090   29.18249    3.16226
     157      444        1     0.13401   30.03488   29.82146    2.19150
     158      444        1    -0.05784   29.83586   29.52205    0.82276
     159      444        1    -0.14744   28.81893   28.63954    0.41371
     160      444        2     0.14604   30.44165   29.94104    0.11421
     161      444        2     0.11151   28.69235   28.42656   28.55647
     162      444        2     0.11226   26.65369   26.93214   28.30766
     163      444        2     0.14561   24.76865   25.43642   28.53491
     164      444        2     0.11628   25.16408   25.53768    3.60452
     165      444        2     0.11589   29.37016   29.35402    4.15895
     166      444        2     0.11478   29.47360   25.54684    3.30123
     167      444        2     0.13272   29.85986   24.80706    7.44212
     168      444        2     0.11229   28.01236   26.29885    7.89050
     169      444        2     0.11638   25.28541   29.40726    3.28812
     170      444        2     0.10983   26.01385   27.88972    7.86369
     171      444        2     0.14321   24.26193   29.48626    7.38501
     172      444        3    -0.00909   27.33324   27.42359    3.58937
     173      444        4    -0.47939   23.67054   24.53253    1.57676
     174      444        2     0.24081   22.97920   24.91966    2.23112
     175      444        4    -0.47615   23.56535   30.50319    5.06736
     176      444        2     0.23282   23.15072   30.36135    4.13826
     177      444        4    -0.47169   30.96714   24.22090    5.13262
     178      444        2     0.23566   31.42934   24.42254    4.23703
     179      444        4    -0.46912   31.08673   30.70702    2.55131
     180      444        2     0.22985   31.32023   30.61885    3.54829
     181      444        1     0.00495   37.37120   15.64026   11.88717
     182      444        1     0.01854   37.70509   15.92613   13.21687
     183      444        1     0.01847   38.73512   16.85839   13.22531
     184      444        1     0.00369   39.03321   17.21061   11.90261
     185      444        1    -0.11201   40.08768   18.10839   11.63341
     186      444        1     0.12753   40.84623   18.63956   12.70526
     187      444        1    -0.08960   40.52500   18.27730   14.03409
     188      444        1    -0.15940   39.46137   17.39567   14.30358
     189      444        1    -0.15929   37.00502   15.33736   14.28552
     190      444        1    -0.08999   35.93484   14.46882   14.00058
     191      444        1     0.12843   35.57695   14.17247   12.66418
     192      444        1    -0.11071   36.30713   14.75906   11.60165
     193      444        1     0.00434   37.36727   17.28263   10.03567
     194      444        1     0.01781   37.63918   16.97624    8.69694
     195      444        1     0.01789   38.64608   16.02041    8.65673
     196      444        1     0.00322   38.97604   15.65902    9.96953
     197      444        1    -0.15020   39.33873   15.48270    7.55720
     198      444        1    -0.05968   40.39756   14.58710    7.79494
     199      444        1     0.13206   40.73625   14.19997    9.11123
     200      444        1    -0.11523   40.01392   14.73287   10.20640
     201      444        1    -0.11484   36.35252   18.20921   10.35324
     202      444        1     0.13244   35.59921   18.81545    9.31634
     203      444        1    -0.05919   35.87679   18.47239    7.97178
     204      444        1    -0.14856   36.90856   17.56938    7.65189
     205      444        2     0.14788   35.31159   18.86651    7.21691
     206      444        2     0.11259   37.08838   17.32016    6.67704
     207      444        2     0.11252   39.11745   15.77338    6.60246
     208      444        2     0.14652   40.93745   14.23270    7.00160
     209      444        2     0.11572   40.28190   14.49981   11.16492
     210      444        2     0.11262   36.14041   18.41042   11.33303
     211      444        2     0.11712   40.33035   18.33448   10.66643
     212      444        2     0.13479   41.07974   18.64086   14.81285
     213      444        2     0.11103   39.25362   17.12158   15.26590
     214      444        2     0.11601   36.03959   14.58361   10.63060
     215      444        2     0.11096   37.23808   15.56388   15.25453
     216      444        2     0.13389   35.39888   14.06947   14.77498
     217      444        3    -0.00919   38.18824   16.44900   10.94875
     218      444        4    -0.48040   41.85749   13.35936    9.28604
     219      444        2     0.23797   42.43361   13.63171   10.09219
     220      444        4    -0.47447   34.43563   13.36460   12.43956
     221      444        2     0.23615   33.97473   13.57977   11.54629
     222      444        4    -0.47872   41.97839   19.46052   12.49462
     223      444        2     0.23741   42.48162   19.22309   11.63108
     224      444        4    -0.47153   34.51681   19.69315    9.58409
     225      444        2     0.23147   34.16677   19.58360   10.54407
     226      444        1     0.00503   39.11876   39.20256   26.36701
     227      444        1     0.01810   38.87740   38.97385   27.72701
     228      444        1     0.01894   37.86701   38.02632   27.84559
     229      444        1     0.00325   37.48904   37.60732   26.56309
     230      444        1    -0.11309   36.42716   36.68859   26.40489
     231      444        1     0.12506   35.72883   36.22683   27.54667
     232      444        1    -0.08910   36.12600   36.66022   28.83208
     233      444        1    -0.15874   37.20579   37.54840   28.99145
     234      444        1    -0.15978   39.62766   39.63071   28.71875
     235      444        1    -0.08997   40.65419   40.51060   28.32543
     236      444        1     0.13027   40.91737   40.76287   26.95699
     237      444        1    -0.11104   40.13482   40.09990   25.97545
     238      444        1     0.00501   39.03583   37.46068   24.60496
     239      444        1     0.01909   38.64433   37.65882   23.27526
     240      444        1     0.01801   37.62347   38.59938   23.24817
     241      444        1     0.00285   37.39303   39.05067   24.55427
     242      444        1    -0.15089   36.84746   39.05940   22.16902
     243      444        1    -0.05843   35.80609   39.97115   22.42279
     244      444        1     0.13431   35.56778   40.44993   23.73092
     245      444        1    -0.11587   36.37173   39.99253   24.80307
     246      444        1    -0.11145   40.10645   36.59083   24.90067
     247      444        1     0.12921   40.78906   35.93047   23.84834
     248      444        1    -0.09014   40.37356   36.14346   22.51223
     249      444        1    -0.15779   39.29421   36.99673   22.21797
     250      444        2     0.13286   40.87417   35.69348   21.74220
     251      444        2     0.11216   39.02186   37.16345   21.24692
     252      444        2     0.11005   37.00153   38.70762   21.22186
     253      444        2     0.14288   35.21251   40.27754   21.64839
     254      444        2     0.11544   36.18012   40.29805   25.75985
     255      444        2     0.11303   40.41502   36.47866   25.86881
     256      444        2     0.11607   36.11597   36.42367   25.46792
     257      444        2     0.13533   35.61056   36.34860    0.52500
     258      444        2     0.11103   37.46329   37.88011    0.78867
     259      444        2     0.11517   40.32816   40.23564   24.98079
     260      444        2     0.11151   39.46399   39.44391    0.57570
     261      444        2     0.13474   41.22682   40.95447   29.04739
     262      444        3    -0.00955   38.26069   38.33314   25.52240
     263      444        4    -0.48076   34.47098   41.31629   23.92816
     264      444        2     0.23615   33.92541   41.07232   24.76374
     265      444        4    -0.46582   42.01723   41.59737   26.60883
     266      444        2     0.22986   42.26252   41.49786   25.61593
     267      444        4    -0.48456   34.56394   35.43379   27.45402
     268      444        2     0.24152   33.91363   35.78077   26.73848
     269      444        4    -0.47134   41.93867   35.13133   24.07559
     270      444        2     0.23441   42.37731   35.33210   24.98313
     271      444        1     0.00430   15.65946   17.15344   24.55135
     272      444        1     0.01931   16.12996   16.88153   23.26011
     273      444        1     0.01783   17.13074   15.92002   23.34314
     274      444        1     0.00423   17.27171   15.53769   24.68246
     275      444        1    -0.11442   18.23671   14.57357   25.04198
     276      444        1     0.13517   19.07121   14.00138   24.04820
     277      444        1    -0.05768   18.92456   14.41863   22.70393
     278      444        1    -0.14926   17.94516   15.36311   22.34004
     279      444        1    -0.15687   15.54380   17.48383   22.13202
     280      444        1    -0.08932   14.44787   18.34844   22.31440
     281      444        1     0.12792   13.95512   18.63214   23.60972
     282      444        1    -0.11147   14.57619   18.03943   24.73636
     283      444        1     0.00438   15.43163   15.49754   26.37896
     284      444        1     0.01776   15.56999   15.79651   27.73925
     285      444        1     0.01966   16.59085   16.72615   27.88609
     286      444        1     0.00352   17.07007   17.07618   26.61641
     287      444        1    -0.15676   17.18530   17.23156   29.05584
     288      444        1    -0.08853   18.30523   18.07435   28.93726
     289      444        1     0.12375   18.80672   18.43530   27.66641
     290      444        1    -0.11245   18.17386   17.94909   26.49637
     291      444        1    -0.11358   14.45573   14.56964   25.96030
     292      444        1     0.13480   13.60770   13.95206   26.91562
     293      444        1    -0.05801   13.74693   14.29555   28.28144
     294      444        1    -0.14858   14.73942   15.19988   28.70447
     295      444        2     0.14475   13.11931   13.88834   28.97805
     296      444        2     0.10992   14.82802   15.43862    0.55997
     297      444        2     0.11206   16.85359   16.94699    0.84548
     298      444        2     0.13488   18.77049   18.40649    0.65116
     299      444        2     0.11629   18.55925   18.16339   25.57426
     300      444        2     0.11597   14.35229   14.36320   24.96448
     301      444        2     0.11583   18.34539   14.31082   26.02381
     302      444        2     0.14394   19.54257   14.04241   21.98169
     303      444        2     0.10989   17.85438   15.65946   21.36608
     304      444        2     0.11410   14.19866   18.19307   25.67390
     305      444        2     0.11234   15.86678   17.25775   21.18894
     306      444        2     0.13381   13.98610   18.74649   21.49281
     307      444        3    -0.00947   16.35909   16.31589   25.55737
     308      444        4    -0.48600   19.99168   19.19952   27.63174
     309      444        2     0.24450   20.68477   18.79711   26.98904
     310      444        4    -0.47914   12.77059   19.39898   23.71577
     311      444        2     0.23974   12.17177   19.09958   24.49570
     312      444        4    -0.47099   20.09992   13.07567   24.37072
     313      444        2     0.22964   20.34696   13.12673   25.36683
     314      444        4    -0.46945   12.58422   13.04075   26.53832
     315      444        2     0.22921   12.39305   13.09705   25.53027
     316      444        1     0.00516   17.30183   37.33541   10.04674
     317      444        1     0.01808   17.04301   37.55015    8.68791
     318      444        1     0.01890   16.02564   38.49027    8.57312
     319      444        1     0.00307   15.66121   38.91886    9.85649
     320      444        1    -0.11321   14.59365   39.82930   10.01906
     321      444        1     0.12464   13.88179   40.28059    8.88107
     322      444        1    -0.08921   14.26631   39.83847    7.59478
     323      444        1    -0.15877   15.34871   38.95378    7.43075
     324      444        1    -0.15968   17.78586   36.88936    7.69326
     325      444        1    -0.09034   18.81894   36.01515    8.08249
     326      444        1     0.13011   19.09696   35.77597    9.45036
     327      444        1    -0.11058   18.32487   36.44461   10.43540
     328      444        1     0.00501   17.22196   39.08559   11.80035
     329      444        1     0.01895   16.84923   38.88613   13.13500
     330      444        1     0.01787   15.83535   37.93641   13.17491
     331      444        1     0.00292   15.59356   37.48206   11.87173
     332      444        1    -0.15113   15.07418   37.46897   14.26163
     333      444        1    -0.05882   14.03717   36.54893   14.01865
     334      444        1     0.13483   13.78883   36.06708   12.71342
     335      444        1    -0.11559   14.57881   36.53016   11.63341
     336      444        1    -0.11146   18.28079   39.96460   11.48890
     337      444        1     0.12990   18.96995   40.63892   12.52871
     338      444        1    -0.09002   18.57191   40.42418   13.87035
     339      444        1    -0.15776   17.50478   39.56001   14.18122
     340      444        2     0.13299   19.07819   40.87984   14.63368
     341      444        2     0.11237   17.24553   39.39416   15.15606
     342      444        2     0.11015   15.23523   37.82293   15.20704
     343      444        2     0.14269   13.45232   36.23992   14.79858
     344      444        2     0.11554   14.37717   36.22683   10.67838
     345      444        2     0.11251   18.57452   40.07590   10.51610
     346      444        2     0.11610   14.29337   40.10339   10.95719
     347      444        2     0.13527   13.74256   40.14311    6.77057
     348      444        2     0.11095   15.59836   38.61640    6.49874
     349      444        2     0.11545   18.52782   36.31499   11.42888
     350      444        2     0.11138   17.60909   37.06525    6.70181
     351      444        2     0.13411   19.38283   35.56385    7.35879
     352      444        3    -0.00958   16.44595   38.20352   10.89368
     353      444        4    -0.48086   12.68984   35.20116   12.52346
     354      444        2     0.23622   12.13467   35.44776   11.69459
     355      444        4    -0.46688   20.19463   34.93842    9.79181
     356      444        2     0.23084   20.46654   35.05626   10.77569
     357      444        4    -0.48482   12.72214   41.07930    8.97838
     358      444        2     0.24159   12.07488   40.73450    9.69800
     359      444        4    -0.46906   20.11520   41.44068   12.27844
     360      444        2     0.23267   20.51106   41.26785   11.34585
     361      444        1     0.17823    1.05098    0.37709    0.91978
     362      444        5    -0.25874   43.35845    0.56957    1.08817
     363      444        1    -0.01235   42.42357    0.27933    0.15063
     364      444        1     0.15065   42.83995   43.37635   28.05623
     365      444        5    -0.26542    0.52811   43.17427   27.88842
     366      444        1     0.11735    1.48045   43.46233   28.81897
     367      444        2     0.09851   41.43763    0.45784    0.34961
     368      444        3    -0.11675    2.88757   43.13630   28.48043
     369      444        6    -0.54795    3.71944    0.65424   28.41488
     370      444        2     0.14631    2.94823   42.60295   27.52628
     371      444        2     0.13171    3.28910   42.46722    0.10925
     372      444        2     0.28240    3.43313    1.19370   27.64223
     373      444        3    -0.14059   41.90768   43.04421   26.95437
     374      444        2     0.10715   40.87984   43.31917   27.21162
     375      444        2     0.11873   42.18876    0.01397   26.09373
     376      444        3    -0.12714    1.92083    0.70487    2.07904
     377      444        2     0.14842    2.97355    0.49144    1.88151
     378      444        2     0.10563    1.62316    0.03797    2.89451
     379      444        1     0.18393   31.66197   10.57043   15.44216
     380      444        5    -0.27398   32.99228   10.39978   15.67844
     381      444        1    -0.00276   33.97080   10.80437   14.83267
     382      444        1     0.15477   33.60855   11.43286   13.62504
     383      444        5    -0.27214   32.28217   11.61137   13.39051