Created on Wed Jan 23 16:54:50 2019 

         780 atoms
         864 bonds
        1416 angles
        2208 dihedrals
        1404 impropers

           4 atom types
           7 bond types
           1 angle types
           3 dihedral types
           1 improper types
           0.000000  51.282100 xlo xhi
           0.000000  51.282100 ylo yhi
           0.000000  51.282100 zlo zhi
           0.000000   0.000000   0.000000 xy xz yz

Masses

    1    12.010700000 # C_R
    2    14.006700000 # N_R
    3     1.007940000 # H_
    4    15.999400000 # O_R

Bond Coeffs

    1      525.000000        1.390000  # C_R C_R
    2      350.000000        1.020000  # C_R H_
    3      525.000000        1.340000  # C_R N_R
    4      350.000000        0.970000  # N_R H_
    5      350.000000        1.390000  # C_R C_R
    6      350.000000        1.340000  # C_R N_R
    7      525.000000        1.300000  # N_R O_R

Angle Coeffs

    1       66.666667      120.000000 # C_R C_R C_R

Dihedral Coeffs

    1        3.125000               2             540        0.000000 # C_R C_R C_R H_
    2        1.250000               2             540        0.000000 # C_R C_R C_R C_R
    3        6.250000               2             540        0.000000 # C_R C_R N_R C_R

Improper Coeffs

    1       13.333333        0.000000  # C_R C_R C_R H_

Pair Coeffs

    1        0.095100        3.472990 # C_R C_R
    2        0.077400        3.262560 # N_R N_R
    3        0.015200        2.846421 # H_ H_
    4        0.095700        3.033154 # O_R O_R

Atoms

       1      444        1    -0.09115    0.15436   29.27849   28.30310
       2      444        1    -0.09111    0.15231   28.30157   29.27951
       3      444        1     0.14295    0.15385   27.05285   28.65233
       4      444        2    -0.47215    0.15282   27.32105   27.32156
       5      444        1     0.14301    0.15282   28.65131   27.05387
       6      444        1     0.01295    0.15436   29.32875   25.80054
       7      444        1     0.14420    0.15487   28.68464   24.53387
       8      444        2    -0.28621    0.15333   27.35746   24.27438
       9      444        1     0.14413    0.15282   27.09849   22.94669
      10      444        1    -0.11536    0.15487   28.34310   22.31233
      11      444        1    -0.11529    0.15333   29.31952   23.28925
      12      444        1     0.01296    0.15385   25.83182   22.30259
      13      444        1     0.14296    0.15487   24.57848   22.97951
      14      444        2    -0.47198    0.15436   24.30977   24.30977
      15      444        1     0.14301    0.15385   22.97951   24.57797
      16      444        1    -0.09115    0.15590   22.35233   23.32874
      17      444        1    -0.09109    0.15385   23.32925   22.35233
      18      444        1     0.01292    0.15538   22.30207   25.83079
      19      444        1     0.14418    0.15538   22.94618   27.09797
      20      444        2    -0.28617    0.15385   24.27336   27.35746
      21      444        1     0.14410    0.15282   24.53233   28.68516
      22      444        1    -0.11527    0.15487   23.28771   29.31900
      23      444        1    -0.11532    0.15385   22.31130   28.34259
      24      444        1     0.01300    0.15282   25.79900   29.32875
      25      444        1    -0.01795    0.15333   25.80977   30.75695
      26      444        1    -0.11661   50.22364   25.72669   31.47798
      27      444        1    -0.09701   50.22671   25.73028   32.88670
      28      444        1     0.03159    0.15538   25.81233   33.61901
      29      444        1    -0.09691    1.36462   25.89438   32.88413
      30      444        1    -0.11666    1.36564   25.89541   31.47593
      31      444        1    -0.01793    0.15692   20.87387   25.81951
      32      444        1    -0.11662   50.22774   20.15387   25.73079
      33      444        1    -0.09692   50.23082   18.74515   25.72772
      34      444        1     0.03156    0.15897   18.01232   25.81028
      35      444        1    -0.09689    1.36821   18.74668   25.89643
      36      444        1    -0.11661    1.36923   20.15489   25.90310
      37      444        1    -0.01790    0.15538   25.82054   20.87438
      38      444        1    -0.11665    1.36821   25.73079   20.15694
      39      444        1    -0.09700    1.36821   25.72720   18.74822
      40      444        1     0.03155    0.15949   25.80926   18.01232
      41      444        1    -0.09690   50.23082   25.89643   18.74412
      42      444        1    -0.11663   50.22671   25.90413   20.15284
      43      444        1    -0.01790    0.15538   30.75695   25.81182
      44      444        1    -0.11661    1.36769   31.47593   25.72926
      45      444        1    -0.11666   50.22569   31.47695   25.89797
      46      444        1    -0.09698   50.22825   32.88516   25.89797
      47      444        1     0.03156    0.15641   33.61901   25.81695
      48      444        1    -0.09689    1.36616   32.88465   25.73438
      49      444        3     0.13984    2.26257   33.37080   25.65079
      50      444        3     0.13732    2.25949   30.97849   25.65951
      51      444        3     0.13984   49.33235   33.37183   25.98105
      52      444        3     0.13737   49.33338   30.98003   25.96208
      53      444        3     0.13015    0.15641   30.28208   28.49285
      54      444        3     0.13013    0.15077   28.49080   30.28362
      55      444        3     0.27062    0.15282   26.64259   26.64310
      56      444        3     0.27052    0.15385   24.98874   24.98874
      57      444        3     0.13598    0.15282   30.32464   23.10515
      58      444        3     0.13601    0.15692   28.52721   21.30771
      59      444        3     0.13737    2.25949   25.66515   20.65540
      60      444        3     0.13987    2.26462   25.64054   18.26361
      61      444        3     0.13731   49.33389   25.97592   20.64822
      62      444        3     0.13984   49.33543   25.97951   18.25643
      63      444        3     0.13013    0.15231   23.14002   21.34823
      64      444        3     0.13016    0.15795   21.34874   23.13900
      65      444        3     0.13597    0.15590   23.10361   30.32413
      66      444        3     0.13599    0.15282   21.30617   28.52618
      67      444        3     0.13732   49.33492   20.65079   25.66567
      68      444        3     0.13983   49.33492   18.25848   25.64259
      69      444        3     0.13734    2.26051   20.65284   25.97438
      70      444        3     0.13986    2.26462   18.26053   25.98002
      71      444        3     0.13735    2.25744   25.96002   30.97798
      72      444        3     0.13983    2.26154   25.97746   33.36978
      73      444        3     0.13986   49.33133   25.64567   33.37337
      74      444        3     0.13733   49.33133   25.65643   30.98157
      75      444        1    -0.09113   28.30259    0.15436   29.27849
      76      444        1    -0.09106   29.27900    0.15231   28.30157
      77      444        1     0.14299   28.65182    0.15385   27.05233
      78      444        2    -0.47208   27.32156    0.15333   27.32105
      79      444        1     0.14296   27.05336    0.15333   28.65131
      80      444        1     0.01297   25.80054    0.15487   29.32823
      81      444        1     0.14418   24.53336    0.15538   28.68464
      82      444        2    -0.28623   24.27387    0.15385   27.35746
      83      444        1     0.14412   22.94618    0.15333   27.09849
      84      444        1    -0.11537   22.31182    0.15590   28.34310
      85      444        1    -0.11534   23.28874    0.15436   29.31952
      86      444        1     0.01299   22.30259    0.15385   25.83131
      87      444        1     0.14295   22.97951    0.15436   24.57848
      88      444        2    -0.47208   24.30977    0.15385   24.30977
      89      444        1     0.14305   24.57746    0.15333   22.97951
      90      444        1    -0.09113   23.32823    0.15487   22.35233
      91      444        1    -0.09109   22.35182    0.15282   23.32925
      92      444        1     0.01298   25.83079    0.15487   22.30207
      93      444        1     0.14413   27.09797    0.15487   22.94566
      94      444        2    -0.28612   27.35695    0.15333   24.27336
      95      444        1     0.14412   28.68464    0.15282   24.53233
      96      444        1    -0.11539   29.31900    0.15436   23.28771
      97      444        1    -0.11530   28.34208    0.15333   22.31130
      98      444        1     0.01295   29.32875    0.15282   25.79900
      99      444        1    -0.01792   30.75695    0.15333   25.80977
     100      444        1    -0.11659   31.47747   50.22364   25.72669
     101      444        1    -0.09697   32.88619   50.22671   25.73028
     102      444        1     0.03158   33.61901    0.15538   25.81233
     103      444        1    -0.09689   32.88413    1.36462   25.89490
     104      444        1    -0.11666   31.47541    1.36564   25.89541
     105      444        1    -0.01792   25.81951    0.15590   20.87387
     106      444        1    -0.11670   25.72977   50.22671   20.15387
     107      444        1    -0.09690   25.72567   50.23030   18.74515
     108      444        1     0.03157   25.80772    0.15846   18.01232
     109      444        1    -0.09692   25.89387    1.36769   18.74668
     110      444        1    -0.11665   25.90208    1.36872   20.15489
     111      444        1    -0.01791   20.87438    0.15538   25.82054
     112      444        1    -0.11667   20.15643    1.36821   25.73028
     113      444        1    -0.09691   18.74822    1.36769   25.72669
     114      444        1     0.03156   18.01232    0.15897   25.80874
     115      444        1    -0.09694   18.74412   50.23030   25.89541
     116      444        1    -0.11660   20.15284   50.22671   25.90361
     117      444        1    -0.01791   25.81131    0.15590   30.75695
     118      444        1    -0.11668   25.72823    1.36872   31.47593
     119      444        1    -0.11659   25.89695   50.22671   31.47695
     120      444        1    -0.09696   25.89643   50.22928   32.88567
     121      444        1     0.03157   25.81438    0.15744   33.61901
     122      444        1    -0.09693   25.73233    1.36718   32.88465
     123      444        3     0.13985   25.64823    2.26359   33.37029
     124      444        3     0.13736   25.65900    2.26000   30.97849
     125      444        3     0.13984   25.97900   49.33338   33.37234
     126      444        3     0.13733   25.96105   49.33389   30.98003
     127      444        3     0.13014   28.49233    0.15641   30.28208
     128      444        3     0.13012   30.28311    0.15077   28.49080
     129      444        3     0.27056   26.64259    0.15385   26.64259
     130      444        3     0.27057   24.98823    0.15385   24.98874
     131      444        3     0.13602   23.10464    0.15385   30.32413
     132      444        3     0.13601   21.30720    0.15744   28.52721
     133      444        3     0.13737   20.65489    2.25949   25.66515
     134      444        3     0.13983   18.26309    2.26462   25.64054
     135      444        3     0.13731   20.64822   49.33389   25.97592
     136      444        3     0.13986   18.25643   49.33492   25.98002
     137      444        3     0.13016   21.34771    0.15180   23.14002
     138      444        3     0.13015   23.13900    0.15692   21.34823
     139      444        3     0.13601   30.32362    0.15590   23.10361
     140      444        3     0.13597   28.52618    0.15282   21.30617
     141      444        3     0.13736   25.66515   49.33441   20.65079
     142      444        3     0.13983   25.64054   49.33441   18.25848
     143      444        3     0.13734   25.97387    2.26000   20.65233
     144      444        3     0.13986   25.97797    2.26410   18.26053
     145      444        3     0.13735   30.97747    2.25744   25.96002
     146      444        3     0.13983   33.36978    2.26154   25.97746
     147      444        3     0.13985   33.37337   49.33133   25.64567
     148      444        3     0.13734   30.98106   49.33133   25.65643
     149      444        1    -0.09109   29.27849   28.30259    0.15487
     150      444        1    -0.09107   28.30157   29.27900    0.15231
     151      444        1     0.14299   27.05285   28.65182    0.15385
     152      444        2    -0.47209   27.32105   27.32156    0.15333
     153      444        1     0.14297   28.65131   27.05336    0.15333
     154      444        1     0.01293   29.32875   25.80002    0.15487
     155      444        1     0.14419   28.68464   24.53336    0.15538
     156      444        2    -0.28623   27.35746   24.27387    0.15385
     157      444        1     0.14412   27.09849   22.94618    0.15333
     158      444        1    -0.11537   28.34310   22.31182    0.15538
     159      444        1    -0.11534   29.31952   23.28874    0.15436
     160      444        1     0.01298   25.83131   22.30259    0.15385
     161      444        1     0.14297   24.57797   22.97951    0.15487
     162      444        2    -0.47209   24.30977   24.30977    0.15385
     163      444        1     0.14304   22.97951   24.57746    0.15385
     164      444        1    -0.09115   22.35233   23.32823    0.15538
     165      444        1    -0.09111   23.32925   22.35182    0.15333
     166      444        1     0.01296   22.30207   25.83079    0.15487
     167      444        1     0.14420   22.94618   27.09797    0.15487
     168      444        2    -0.28616   24.27336   27.35695    0.15333
     169      444        1     0.14413   24.53233   28.68464    0.15282
     170      444        1    -0.11536   23.28771   29.31900    0.15436
     171      444        1    -0.11536   22.31130   28.34259    0.15333
     172      444        1     0.01296   25.79951   29.32875    0.15282
     173      444        1    -0.01793   25.80977   30.75695    0.15333
     174      444        1    -0.11660   25.72669   31.47747   50.22364
     175      444        1    -0.09696   25.73028   32.88619   50.22671
     176      444        1     0.03157   25.81233   33.61901    0.15538
     177      444        1    -0.09689   25.89490   32.88413    1.36462
     178      444        1    -0.11667   25.89541   31.47541    1.36564
     179      444        1    -0.01791   20.87387   25.81951    0.15590
     180      444        1    -0.11667   20.15387   25.72977   50.22671
     181      444        1    -0.09700   18.74515   25.72669   50.22979
     182      444        1     0.03159   18.01232   25.80772    0.15846
     183      444        1    -0.09691   18.74668   25.89438    1.36769
     184      444        1    -0.11665   20.15489   25.90208    1.36872
     185      444        1    -0.01793   25.82054   20.87438    0.15538
     186      444        1    -0.11662   25.73028   20.15643    1.36821
     187      444        1    -0.09698   25.72720   18.74822    1.36821
     188      444        1     0.03157   25.80874   18.01232    0.15897
     189      444        1    -0.09691   25.89541   18.74412   50.23030
     190      444        1    -0.11655   25.90413   20.15233   50.22671
     191      444        1    -0.01790   30.75695   25.81131    0.15590
     192      444        1    -0.11667   31.47593   25.72823    1.36872
     193      444        1    -0.11659   31.47695   25.89643   50.22671
     194      444        1    -0.09694   32.88516   25.89643   50.22928
     195      444        1     0.03156   33.61901   25.81438    0.15744
     196      444        1    -0.09692   32.88465   25.73182    1.36718
     197      444        3     0.13986   33.37029   25.64823    2.26359
     198      444        3     0.13736   30.97849   25.65900    2.26000
     199      444        3     0.13982   33.37234   25.97849   49.33338
     200      444        3     0.13733   30.98003   25.96105   49.33389
     201      444        3     0.13011   30.28259   28.49233    0.15641
     202      444        3     0.13011   28.49080   30.28311    0.15128
     203      444        3     0.27056   26.64259   26.64259    0.15333
     204      444        3     0.27057   24.98874   24.98823    0.15333
     205      444        3     0.13602   30.32413   23.10464    0.15333
     206      444        3     0.13601   28.52721   21.30720    0.15744
     207      444        3     0.13736   25.66464   20.65540    2.25949
     208      444        3     0.13987   25.64054   18.26309    2.26462
     209      444        3     0.13730   25.97592   20.64822   49.33389
     210      444        3     0.13985   25.98002   18.25591   49.33492
     211      444        3     0.13014   23.13951   21.34771    0.15231
     212      444        3     0.13014   21.34823   23.13900    0.15744
     213      444        3     0.13602   23.10361   30.32362    0.15590
     214      444        3     0.13600   21.30617   28.52618    0.15231
     215      444        3     0.13737   20.65079   25.66464   49.33441
     216      444        3     0.13987   18.25848   25.64002   49.33441
     217      444        3     0.13734   20.65233   25.97438    2.26000
     218      444        3     0.13987   18.26053   25.97797    2.26410
     219      444        3     0.13735   25.96002   30.97747    2.25744
     220      444        3     0.13983   25.97746   33.36978    2.26154
     221      444        3     0.13985   25.64618   33.37337   49.33133
     222      444        3     0.13734   25.65695   30.98106   49.33133
     223      444        1    -0.09119   25.79438    3.63744    2.66205
     224      444        1    -0.09129   25.79079    2.66103    3.63846
     225      444        1     0.14286   25.79387    1.41180    3.01128
     226      444        2    -0.47204   25.79285    1.68051    1.68051
     227      444        1     0.14299   25.79182    3.01077    1.41282
     228      444        1     0.01302   25.79387    3.68872    0.15949
     229      444        1     0.14415   25.79438    3.04411   50.17441
     230      444        2    -0.28614   25.79285    1.71692   49.91492
     231      444        1     0.14406   25.79131    1.45744   48.58723
     232      444        1    -0.11546   25.79438    2.70257   47.95338
     233      444        1    -0.11543   25.79182    3.67847   48.92979
     234      444        1     0.01302   25.79182    0.19077   47.94261
     235      444        1     0.14292   25.79387   50.21953   48.62005
     236      444        2    -0.47197   25.79285   49.95082   49.95030
     237      444        1     0.14296   25.79233   48.62056   50.21851
     238      444        1    -0.09120   25.79490   47.99389   48.96928
     239      444        1    -0.09118   25.79079   48.97082   47.99287
     240      444        1     0.01302   25.79490   47.94261    0.18974
     241      444        1     0.14405   25.79592   48.58671    1.45641
     242      444        2    -0.28616   25.79387   49.91441    1.71641
     243      444        1     0.14415   25.79233   50.17338    3.04359
     244      444        1    -0.11546   25.79592   48.92876    3.67795
     245      444        1    -0.11546   25.79387   47.95235    2.70103
     246      444        1     0.01299   25.79285    0.15846    3.68872
     247      444        1    -0.01761   25.79233    0.16872    5.11744
     248      444        1    -0.11652   24.58669    0.02974    5.83847
     249      444        1    -0.09664   24.58977    0.02974    7.24719
     250      444        1     0.03271   25.79336    0.17231    7.98206
     251      444        1    -0.09663   26.99695    0.31436    7.24565
     252      444        1    -0.11660   26.99900    0.31077    5.83693
     253      444        1    -0.01761   25.79695   46.51389    0.17846
     254      444        1    -0.11664   24.59131   45.79286    0.03333
     255      444        1    -0.09663   24.59541   44.38414    0.02615
     256      444        1     0.03271   25.79951   43.64876    0.16821
     257      444        1    -0.09668   27.00259   44.38568    0.31385
     258      444        1    -0.11653   27.00362   45.79389    0.31692
     259      444        1    -0.01761   25.79233    0.18000   46.51389
     260      444        1    -0.11653   26.99900    0.03487   45.79492
     261      444        1    -0.09672   26.99797    0.02718   44.38620
     262      444        1     0.03272   25.79490    0.16974   43.64876
     263      444        1    -0.09662   24.59079    0.31590   44.38312
     264      444        1    -0.11653   24.58720    0.31949   45.79184
     265      444        1    -0.01765   25.79541    5.11744    0.17026
     266      444        1    -0.11661   27.00208    5.83744    0.03179
     267      444        1    -0.11650   24.58977    5.83847    0.31231
     268      444        1    -0.09660   24.59284    7.24667    0.31641
     269      444        1     0.03270   25.79695    7.98257    0.17385
     270      444        1    -0.09661   27.00003    7.24616    0.03179
     271      444        3     0.13866   27.89746    7.73026   51.23133
     272      444        3     0.13706   27.89080    5.34052   51.21338
     273      444        3     0.13863   23.69541    7.73180    0.39692
     274      444        3     0.13703   23.69951    5.34154    0.40718
     275      444        3     0.13006   25.79746    4.64154    2.85180
     276      444        3     0.13009   25.78874    2.85026    4.64206
     277      444        3     0.27054   25.79336    1.00154    1.00205
     278      444        3     0.27049   25.79336   50.62979   50.62928
     279      444        3     0.13591   25.79028    4.68359   48.74569
     280      444        3     0.13594   25.79643    2.88718   46.94876
     281      444        3     0.13706   27.88823   51.22107   46.29286
     282      444        3     0.13870   27.89541   51.22569   43.90312
     283      444        3     0.13701   23.69746    0.42154   46.28774
     284      444        3     0.13865   23.69438    0.39846   43.89748
     285      444        3     0.13004   25.78823   48.78056   46.98876
     286      444        3     0.13004   25.79797   46.98979   48.77902
     287      444        3     0.13595   25.79849   48.74415    4.68257
     288      444        3     0.13594   25.79233   46.94774    2.88513
     289      444        3     0.13708   23.70156   46.28927   51.22005
     290      444        3     0.13866   23.69848   43.89953   51.22466
     291      444        3     0.13703   27.89233   46.29133    0.41897
     292      444        3     0.13869   27.89951   43.90158    0.39590
     293      444        3     0.13708   27.88823    0.40615    5.33949
     294      444        3     0.13866   27.89439    0.39590    7.72975
     295      444        3     0.13866   23.69284   51.22928    7.73180
     296      444        3     0.13701   23.69695   51.21133    5.34206
     297      444        1    -0.09126    2.66205   25.79541    3.63795
     298      444        1    -0.09124    3.63846   25.79182    2.66103
     299      444        1     0.14291    3.01128   25.79438    1.41180
     300      444        2    -0.47209    1.68051   25.79285    1.68051
     301      444        1     0.14292    1.41231   25.79233    3.01128
     302      444        1     0.01304    0.15949   25.79387    3.68872
     303      444        1     0.14407   50.17441   25.79438    3.04462
     304      444        2    -0.28609   49.91492   25.79233    1.71692
     305      444        1     0.14409   48.58723   25.79079    1.45795
     306      444        1    -0.11541   47.95338   25.79387    2.70257
     307      444        1    -0.11549   48.92979   25.79131    3.67898
     308      444        1     0.01306   47.94261   25.79182    0.19077
     309      444        1     0.14296   48.62005   25.79387   50.21953
     310      444        2    -0.47203   49.95030   25.79336   49.95133
     311      444        1     0.14289   50.21851   25.79285   48.62056
     312      444        1    -0.09128   48.96928   25.79541   47.99389
     313      444        1    -0.09127   47.99287   25.79131   48.97082
     314      444        1     0.01303    0.18974   25.79490   47.94312
     315      444        1     0.14407    1.45641   25.79592   48.58723
     316      444        2    -0.28615    1.71641   25.79387   49.91492
     317      444        1     0.14415    3.04359   25.79182   50.17389
     318      444        1    -0.11547    3.67795   25.79541   48.92928
     319      444        1    -0.11539    2.70103   25.79285   47.95287
     320      444        1     0.01300    3.68872   25.79285    0.15846
     321      444        1    -0.01761    5.11744   25.79233    0.16923
     322      444        1    -0.11660    5.83847   24.58618    0.03026
     323      444        1    -0.09663    7.24719   24.58977    0.02974
     324      444        1     0.03272    7.98206   25.79336    0.17231
     325      444        1    -0.09667    7.24565   26.99695    0.31538
     326      444        1    -0.11658    5.83693   26.99900    0.31077
     327      444        1    -0.01758    0.17846   25.79695   46.51389
     328      444        1    -0.11663    0.03333   24.59131   45.79338
     329      444        1    -0.09659    0.02667   24.59541   44.38466
     330      444        1     0.03271    0.16821   25.79951   43.64927
     331      444        1    -0.09664    0.31385   27.00259   44.38568
     332      444        1    -0.11655    0.31744   27.00362   45.79440
     333      444        1    -0.01762   46.51389   25.79233    0.18000
     334      444        1    -0.11653   45.79492   26.99900    0.03487
     335      444        1    -0.09671   44.38620   26.99797    0.02718
     336      444        1     0.03273   43.64876   25.79490    0.16974
     337      444        1    -0.09663   44.38312   24.59079    0.31590
     338      444        1    -0.11657   45.79184   24.58720    0.31949
     339      444        1    -0.01764    0.17026   25.79541    5.11744
     340      444        1    -0.11662    0.03128   27.00208    5.83744
     341      444        1    -0.11659    0.31231   24.58925    5.83847
     342      444        1    -0.09661    0.31641   24.59284    7.24719
     343      444        1     0.03274    0.17333   25.79643    7.98257
     344      444        1    -0.09665    0.03077   27.00003    7.24616
     345      444        3     0.13868   51.23133   27.89746    7.73026
     346      444        3     0.13706   51.21338   27.89080    5.34052
     347      444        3     0.13864    0.39692   23.69541    7.73180
     348      444        3     0.13707    0.40718   23.69951    5.34154
     349      444        3     0.13008    2.85180   25.79797    4.64154
     350      444        3     0.13008    4.64206   25.78926    2.85077
     351      444        3     0.27061    1.00205   25.79285    1.00205
     352      444        3     0.27056   50.62928   25.79336   50.62979
     353      444        3     0.13595   48.74569   25.78977    4.68359
     354      444        3     0.13590   46.94825   25.79643    2.88718
     355      444        3     0.13706   46.29286   27.88823   51.22107
     356      444        3     0.13869   43.90312   27.89541   51.22569
     357      444        3     0.13702   46.28722   23.69746    0.42154
     358      444        3     0.13865   43.89748   23.69438    0.39846
     359      444        3     0.13008   46.98928   25.78823   48.78107
     360      444        3     0.13008   48.77902   25.79849   46.99030
     361      444        3     0.13594    4.68257   25.79746   48.74466
     362      444        3     0.13591    2.88564   25.79131   46.94774
     363      444        3     0.13708   51.21954   23.70156   46.28979
     364      444        3     0.13865   51.22466   23.69848   43.89953
     365      444        3     0.13704    0.41949   27.89233   46.29133
     366      444        3     0.13866    0.39590   27.90003   43.90158
     367      444        3     0.13708    5.33949   27.88823    0.40615
     368      444        3     0.13868    7.72975   27.89439    0.39590
     369      444        3     0.13867    7.73180   23.69284   51.22979
     370      444        3     0.13705    5.34206   23.69695   51.21184
     371      444        1    -0.09121    3.63744    2.66205   25.79643
     372      444        1    -0.09127    2.66103    3.63846   25.79336
     373      444        1     0.14288    1.41180    3.01128   25.79643
     374      444        2    -0.47204    1.68051    1.68051   25.79490
     375      444        1     0.14299    3.01077    1.41282   25.79387
     376      444        1     0.01301    3.68872    0.15949   25.79541
     377      444        1     0.14414    3.04411   50.17441   25.79643
     378      444        2    -0.28614    1.71692   49.91492   25.79438
     379      444        1     0.14406    1.45744   48.58723   25.79336
     380      444        1    -0.11537    2.70205   47.95338   25.79695
     381      444        1    -0.11542    3.67847   48.92979   25.79387
     382      444        1     0.01303    0.19077   47.94261   25.79438
     383      444        1     0.14292   50.21953   48.62005   25.79592
     384      444        2    -0.47196   49.95082   49.95030   25.79490
     385      444        1     0.14295   48.62056   50.21851   25.79438
     386      444        1    -0.09121   47.99389   48.96928   25.79695
     387      444        1    -0.09127   48.97030   47.99287   25.79336
     388      444        1     0.01302   47.94261    0.18974   25.79643
     389      444        1     0.14414   48.58723    1.45692   25.79746
     390      444        2    -0.28620   49.91441    1.71641   25.79541
     391      444        1     0.14412   50.17389    3.04359   25.79438
     392      444        1    -0.11548   48.92876    3.67795   25.79797
     393      444        1    -0.11540   47.95287    2.70154   25.79541
     394      444        1     0.01298    0.15846    3.68872   25.79541
     395      444        1    -0.01761    0.16923    5.11744   25.79592