Created on Wed Jan 23 16:43:44 2019 

         468 atoms
         504 bonds
         810 angles
        1224 dihedrals
         810 impropers

           4 atom types
           8 bond types
           1 angle types
           4 dihedral types
           1 improper types
           0.000000  37.406500 xlo xhi
           0.000000  32.361405 ylo yhi
           0.000000  29.671800 zlo zhi
         -18.710987   0.000000   0.000000 xy xz yz

Masses

    1    12.010700000 # C_R
    2    12.010700000 # C_2
    3     1.007940000 # H_
    4    14.006700000 # N_R

Bond Coeffs

    1      525.000000        1.390000  # C_R C_R
    2      350.000000        1.390000  # C_R C_R
    3      350.000000        1.020000  # C_R H_
    4      350.000000        1.360000  # C_R C_2
    5      350.000000        0.990000  # C_2 H_
    6      700.000000        1.330000  # C_2 C_2
    7      525.000000        1.340000  # C_R N_R
    8      350.000000        0.970000  # N_R H_

Angle Coeffs

    1       66.666667      120.000000 # C_R C_R C_R

Dihedral Coeffs

    1        3.125000               2             540        0.000000 # C_R C_R C_R C_R
    2        1.250000               2             540        0.000000 # C_R C_R C_R C_R
    3        0.625000               2             540        0.000000 # C_R C_R C_2 H_
    4        5.625000               2             540        0.000000 # H_ C_2 C_2 C_R

Improper Coeffs

    1       13.333333        0.000000  # C_R C_R C_R C_R

Pair Coeffs

    1        0.095100        3.472990 # C_R C_R
    2        0.095100        3.472990 # C_2 C_2
    3        0.015200        2.846421 # H_ H_
    4        0.077400        3.262560 # N_R N_R

Atoms

       1      444        1     0.05795    0.06678   29.69385    0.10385
       2      444        1    -0.12130    1.23125   28.90262    9.87388
       3      444        1    -0.11985    1.15434   27.49716    9.94539
       4      444        1     0.05294   -0.08890   26.84152    0.23470
       5      444        1    -0.12854   -1.25112   27.64311    0.35161
       6      444        1    -0.10618   -1.17571   29.04792    0.28693
       7      444        2    -0.12914   -0.19256   25.45451    0.37030
       8      444        2    -0.14194    0.45105   24.55422    9.49290
       9      444        1     0.02579    0.31765   23.17012    9.61366
      10      444        1    -0.09807   -0.95346   22.54522    9.61218
      11      444        1    -0.02532   -1.08816   21.13556    9.61871
      12      444        1    -0.10252    0.08921   20.34788    9.60298
      13      444        1     0.01365    1.37660   20.93686    9.60654
      14      444        1    -0.07652    1.47128   22.34976    9.59912
      15      444        2    -0.16277    2.50872   20.12847    9.48578
      16      444        2    -0.15369    3.61312   20.24206    0.35784
      17      444        1     0.03486    4.76187   19.45794   10.11363
      18      444        1    -0.12288    6.03747   20.06537    0.32224
      19      444        1    -0.11144    4.70685   18.05087    9.95459
      20      444        1    -0.11167    5.88608   17.28067    9.88397
      21      444        1     0.04968    7.15383   17.89586    0.09614
      22      444        1    -0.11617    7.21652   19.29743    0.25874
      23      444        2    -0.18179   -2.35778   20.56244    9.51041
      24      444        2    -0.18131   -2.79257   19.51457    0.34568
      25      444        1    -0.00933   -4.05210   18.92657   10.10622
      26      444        1    -0.10241   -5.24405   19.69159    0.20147
      27      444        1    -0.10116   -4.16491   17.51593   10.06467
      28      444        1    -0.10966   -5.42536   16.88942   10.00207
      29      444        1    -0.01889   -6.61021   17.65768    0.09851
      30      444        1    -0.12054   -6.50581   19.06669    0.13946
      31      444        3     0.11473    2.14666   29.34694    9.76202
      32      444        3     0.11337    2.02267   26.95737    9.89169
      33      444        3     0.12395   -2.03339   29.59774    0.38840
      34      444        3     0.09099   -2.16729   27.20915    0.49671
      35      444        3     0.09959    2.39624   22.78923    9.54542
      36      444        3     0.11862   -1.79637   23.12773    9.56916
      37      444        3     0.12498    0.00810   19.32688    9.55224
      38      444        3     0.12873   -5.20558   20.71259    0.26349
      39      444        3     0.11880    6.12084   21.07795    0.45220
      40      444        3     0.11653    8.12202   19.76667    0.34716
      41      444        3     0.12523    5.81245   16.26420    9.78784
      42      444        3     0.10512    3.80546   17.56804    9.91454
      43      444        3     0.13672   -7.35002   19.64564    0.14925
      44      444        3     0.13712   -5.47262   15.86680    9.98693
      45      444        3     0.12464   -3.32687   16.92760   10.08871
      46      444        3     0.13810    3.63389   20.95660    1.05098
      47      444        3     0.13803    2.48420   19.42170    8.78582
      48      444        3     0.12624   -0.81604   25.11472    1.06878
      49      444        3     0.12624    1.06911   24.88657    8.78701
      50      444        3     0.15339   -2.16835   19.10261    1.00261
      51      444        3     0.15338   -2.98051   20.96922    8.84902
      52      444        1     0.05780   19.04349    3.02612    0.10355
      53      444        1    -0.12061   17.87921    3.81703    9.87329
      54      444        1    -0.11984   17.95537    5.22248    9.94539
      55      444        1     0.05293   19.19879    5.87845    0.23441
      56      444        1    -0.12853   20.36101    5.07750    0.35102
      57      444        1    -0.10673   20.28616    3.67237    0.28633
      58      444        2    -0.12919   19.30170    7.26546    0.37030
      59      444        2    -0.14204   18.65865    8.16543    9.49201
      60      444        1     0.02577   18.79149    9.54985    9.61277
      61      444        1    -0.09806   20.06260   10.17475    9.61218
      62      444        1    -0.02536   20.19786   11.58409    9.62019
      63      444        1    -0.10252   19.02012   12.37177    9.60446
      64      444        1     0.01366   17.73273   11.78279    9.60803
      65      444        1    -0.07652   17.63805   10.36989    9.59883
      66      444        2    -0.16275   16.60099   12.59118    9.48696
      67      444        2    -0.15365   15.49584   12.47823    0.35873
      68      444        1     0.03487   14.34727   13.26203   10.11423
      69      444        1    -0.12289   13.07167   12.65460    0.32253
      70      444        1    -0.11143   14.40230   14.66910    9.95489
      71      444        1    -0.11154   13.22325   15.43898    9.88457
      72      444        1     0.04966   11.95550   14.82379    0.09643
      73      444        1    -0.11629   11.89281   13.42222    0.25933
      74      444        2    -0.18171   21.46730   12.15753    9.51130
      75      444        2    -0.18126   21.90209   13.20540    0.34657
      76      444        1    -0.00935   23.16124   13.79340   10.10681
      77      444        1    -0.10239   24.35375   13.02870    0.20206
      78      444        1    -0.10115   23.27406   15.20404   10.06527
      79      444        1    -0.10984   24.53432   15.83088   10.00266
      80      444        1    -0.01875   25.71935   15.06294    0.09851
      81      444        1    -0.12032   25.61533   13.65392    0.13975
      82      444        3     0.11491   16.96360    3.37238    9.76262
      83      444        3     0.11337   17.08722    5.76195    9.89198
      84      444        3     0.12381   21.14421    3.12255    0.38781
      85      444        3     0.09100   21.27718    5.51147    0.49582
      86      444        3     0.09961   16.71309    9.93042    9.54542
      87      444        3     0.11863   20.90551    9.59224    9.56856
      88      444        3     0.12498   19.10123   13.39277    9.55373
      89      444        3     0.12873   24.31547   12.00738    0.26349
      90      444        3     0.11883   12.98868   11.64202    0.45279
      91      444        3     0.11652   10.98731   12.95298    0.34746
      92      444        3     0.12525   13.29688   16.45545    9.78754
      93      444        3     0.10511   15.30368   15.15193    9.91483
      94      444        3     0.13686   26.45954   13.07498    0.14895
      95      444        3     0.13704   24.58158   16.85350    9.98723
      96      444        3     0.12461   22.43564   15.79237   10.08930
      97      444        3     0.13807   15.47525   11.76272    1.05127
      98      444        3     0.13800   16.62569   13.29827    8.78701
      99      444        3     0.12629   19.92462    7.60558    1.06878
     100      444        3     0.12634   18.04153    7.83275    8.78582
     101      444        3     0.15336   21.27805   13.61703    1.00409
     102      444        3     0.15333   22.09003   11.75075    8.84932
     103      444        1     0.02444   10.75662   15.60661    0.08902
     104      444        1     0.15594   10.18794   16.02731    1.33108
     105      444        1     0.15587    8.92083   16.69201    1.33078
     106      444        1     0.02449    8.35289   17.11271    0.08902
     107      444        1     0.15559    8.97748   16.78360    8.73716
     108      444        1     0.15535   10.13204   15.93637    8.73716
     109      444        4    -0.72413    8.24054   16.90139    2.50400
     110      444        3     0.26611    8.49314   16.46775    3.33185
     111      444        3     0.25749    7.36718   17.32177    2.53041
     112      444        4    -0.72406   10.86823   15.81728    2.50400
     113      444        3     0.25749   11.74177   15.39723    2.53100
     114      444        3     0.26616   10.61507   16.25190    3.33125
     115      444        4    -0.73645    8.48246   17.29749    7.56542
     116      444        3     0.27402    7.71455   17.88938    7.54020
     117      444        3     0.26044    8.97493   17.25445    6.73342
     118      444        4    -0.73653   10.62724   15.42345    7.56483
     119      444        3     0.27417   11.39384   14.82929    7.54168
     120      444        3     0.26042   10.13384   15.46487    6.73342
     121      444        1     0.05536   18.96453    1.59639    0.09614
     122      444        1     0.13358   18.88128    0.89415    1.33790
     123      444        1     0.13302    0.22955   31.82615    1.33820
     124      444        1     0.05543    0.14649   31.12358    0.09673
     125      444        1     0.14031    0.11920   31.82938    8.74487
     126      444        1     0.14002   18.99219    0.89059    8.74458
     127      444        4    -0.75118    0.39150   31.13329    2.51172
     128      444        3     0.26092    0.65118   31.57243    3.33452
     129      444        3     0.27982    0.47384   30.16730    2.53516
     130      444        4    -0.75127   18.71783    1.58765    2.51053
     131      444        3     0.27951   18.64092    2.55396    2.53724
     132      444        3     0.26107   18.46563    1.14980    3.33659
     133      444        4    -0.73983   -0.08488   31.14526    7.57343
     134      444        3     0.26378   -0.22099   30.18510    7.54880
     135      444        3     0.26358   -0.29465   31.59541    6.74262
     136      444        4    -0.73943   19.19496    1.57438    7.57254
     137      444        3     0.26344   19.33650    2.53357    7.54999
     138      444        3     0.26352   19.41296    1.12165    6.74529
     139      444        1     0.06238   26.99887   15.70823    0.09643
     140      444        1     0.12885   27.62966   16.01663    1.34295
     141      444        1     0.12880   -8.52052   16.70463    1.34295
     142      444        1     0.06223   -7.88992   17.01271    0.09643
     143      444        1     0.12834   -8.52314   16.70916    8.74131
     144      444        1     0.12851   27.63191   16.01210    8.74131
     145      444        4    -0.69026   -7.93726   17.11271    2.51795
     146      444        3     0.26292   -8.39979   17.09621    3.36597
     147      444        3     0.24978   -7.09180   17.58551    2.54436
     148      444        4    -0.69016   27.04622   15.60758    2.51765
     149      444        3     0.24969   26.19926   15.13737    2.54554
     150      444        3     0.26282   27.50669   15.62765    3.36686
     151      444        4    -0.69002   -7.94793   17.13051    7.56750
     152      444        3     0.24968   -7.11070   17.61884    7.54346
     153      444        3     0.26282   -8.41850   17.11951    6.72333
     154      444        4    -0.68998   27.05651   15.58978    7.56809
     155      444        3     0.24960   26.21816   15.10404    7.54257
     156      444        3     0.26268   27.52390   15.60499    6.72185
     157      444        1     0.05793    0.06678   29.69385    9.99465
     158      444        1    -0.12130    1.23125   28.90262   19.76468
     159      444        1    -0.11985    1.15434   27.49716   19.83619
     160      444        1     0.05294   -0.08890   26.84152   10.12521
     161      444        1    -0.12854   -1.25112   27.64311   10.24211
     162      444        1    -0.10619   -1.17571   29.04792   10.17743
     163      444        2    -0.12916   -0.19256   25.45451   10.26110
     164      444        2    -0.14192    0.45105   24.55422   19.38370
     165      444        1     0.02579    0.31765   23.17012   19.50446
     166      444        1    -0.09807   -0.95346   22.54522   19.50268
     167      444        1    -0.02532   -1.08816   21.13556   19.50921
     168      444        1    -0.10251    0.08921   20.34788   19.49348
     169      444        1     0.01365    1.37660   20.93686   19.49704
     170      444        1    -0.07652    1.47128   22.34976   19.48963
     171      444        2    -0.16274    2.50872   20.12847   19.37658
     172      444        2    -0.15370    3.61312   20.24206   10.24834
     173      444        1     0.03486    4.76187   19.45794   20.00443
     174      444        1    -0.12287    6.03747   20.06537   10.21274
     175      444        1    -0.11143    4.70685   18.05087   19.84509
     176      444        1    -0.11167    5.88608   17.28067   19.77447
     177      444        1     0.04967    7.15383   17.89586    9.98664
     178      444        1    -0.11616    7.21652   19.29743   10.14924
     179      444        2    -0.18179   -2.35778   20.56244   19.40091
     180      444        2    -0.18130   -2.79257   19.51457   10.23618
     181      444        1    -0.00932   -4.05210   18.92657   19.99672
     182      444        1    -0.10242   -5.24405   19.69159   10.09197
     183      444        1    -0.10117   -4.16491   17.51593   19.95547
     184      444        1    -0.10966   -5.42536   16.88942   19.89286
     185      444        1    -0.01887   -6.61021   17.65768    9.98901
     186      444        1    -0.12054   -6.50581   19.06669   10.02996
     187      444        3     0.11473    2.14666   29.34694   19.65282
     188      444        3     0.11337    2.02267   26.95737   19.78249
     189      444        3     0.12395   -2.03339   29.59774   10.27890
     190      444        3     0.09099   -2.16729   27.20915   10.38721
     191      444        3     0.09959    2.39624   22.78923   19.43622
     192      444        3     0.11862   -1.79637   23.12773   19.45966
     193      444        3     0.12498    0.00810   19.32688   19.44274
     194      444        3     0.12873   -5.20558   20.71259   10.15399
     195      444        3     0.11880    6.12084   21.07795   10.34300
     196      444        3     0.11654    8.12202   19.76667   10.23766
     197      444        3     0.12523    5.81245   16.26420   19.67834
     198      444        3     0.10512    3.80546   17.56804   19.80504
     199      444        3     0.13672   -7.35002   19.64564   10.04005
     200      444        3     0.13712   -5.47262   15.86680   19.87744
     201      444        3     0.12464   -3.32687   16.92760   19.97921
     202      444        3     0.13810    3.63389   20.95660   10.94148
     203      444        3     0.13801    2.48420   19.42170   18.67632
     204      444        3     0.12624   -0.81604   25.11472   10.95928
     205      444        3     0.12623    1.06911   24.88657   18.67751
     206      444        3     0.15337   -2.16835   19.10261   10.89341
     207      444        3     0.15338   -2.98051   20.96922   18.73952
     208      444        1     0.05779   19.04349    3.02612    9.99435
     209      444        1    -0.12061   17.87921    3.81703   19.76379
     210      444        1    -0.11985   17.95537    5.22248   19.83590
     211      444        1     0.05293   19.19879    5.87845   10.12521
     212      444        1    -0.12853   20.36101    5.07750   10.24182
     213      444        1    -0.10673   20.28616    3.67237   10.17683
     214      444        2    -0.12920   19.30170    7.26546   10.26081
     215      444        2    -0.14201   18.65865    8.16543   19.38281
     216      444        1     0.02577   18.79149    9.54985   19.50327
     217      444        1    -0.09806   20.06260   10.17475   19.50268
     218      444        1    -0.02536   20.19786   11.58409   19.51069
     219      444        1    -0.10252   19.02012   12.37177   19.49497
     220      444        1     0.01365   17.73273   11.78279   19.49853
     221      444        1    -0.07652   17.63805   10.36989   19.48933
     222      444        2    -0.16275   16.60099   12.59118   19.37776
     223      444        2    -0.15365   15.49584   12.47823   10.24923
     224      444        1     0.03488   14.34727   13.26203   20.00473
     225      444        1    -0.12288   13.07167   12.65460   10.21303
     226      444        1    -0.11143   14.40230   14.66910   19.84569
     227      444        1    -0.11155   13.22325   15.43898   19.77507
     228      444        1     0.04967   11.95550   14.82379    9.98693
     229      444        1    -0.11628   11.89281   13.42222   10.14983
     230      444        2    -0.18174   21.46730   12.15753   19.40180
     231      444        2    -0.18126   21.90209   13.20540   10.23707
     232      444        1    -0.00934   23.16124   13.79340   19.99731
     233      444        1    -0.10239   24.35375   13.02870   10.09286
     234      444        1    -0.10115   23.27406   15.20404   19.95577
     235      444        1    -0.10984   24.53432   15.83088   19.89346
     236      444        1    -0.01874   25.71935   15.06294    9.98931
     237      444        1    -0.12032   25.61533   13.65392   10.03055
     238      444        3     0.11491   16.96360    3.37238   19.65312
     239      444        3     0.11337   17.08722    5.76195   19.78278
     240      444        3     0.12381   21.14421    3.12255   10.27861
     241      444        3     0.09100   21.27718    5.51147   10.38661
     242      444        3     0.09961   16.71309    9.93042   19.43592
     243      444        3     0.11863   20.90551    9.59224   19.45936
     244      444        3     0.12498   19.10123   13.39277   19.44423
     245      444        3     0.12873   24.31547   12.00738   10.15428
     246      444        3     0.11883   12.98868   11.64202   10.34329
     247      444        3     0.11652   10.98731   12.95298   10.23796
     248      444        3     0.12525   13.29688   16.45545   19.67834
     249      444        3     0.10511   15.30368   15.15193   19.80533
     250      444        3     0.13686   26.45954   13.07498   10.03975
     251      444        3     0.13705   24.58158   16.85350   19.87773
     252      444        3     0.12461   22.43564   15.79237   19.98010
     253      444        3     0.13807   15.47525   11.76272   10.94177
     254      444        3     0.13801   16.62569   13.29827   18.67780
     255      444        3     0.12629   19.92462    7.60558   10.95928
     256      444        3     0.12632   18.04153    7.83275   18.67632
     257      444        3     0.15336   21.27805   13.61703   10.89459
     258      444        3     0.15335   22.09003   11.75075   18.74012
     259      444        1     0.02442   10.75662   15.60661    9.97952
     260      444        1     0.15591   10.18794   16.02731   11.22158
     261      444        1     0.15585    8.92083   16.69201   11.22158
     262      444        1     0.02447    8.35289   17.11271    9.97952
     263      444        1     0.15562    8.97748   16.78360   18.62766
     264      444        1     0.15532   10.13204   15.93637   18.62766
     265      444        4    -0.72422    8.24054   16.90139   12.39480
     266      444        3     0.26618    8.49314   16.46775   13.22235
     267      444        3     0.25751    7.36718   17.32177   12.42091
     268      444        4    -0.72410   10.86823   15.81728   12.39480
     269      444        3     0.25749   11.74177   15.39723   12.42180
     270      444        3     0.26622   10.61507   16.25190   13.22175
     271      444        4    -0.73637    8.48246   17.29749   17.45622
     272      444        3     0.27400    7.71455   17.88938   17.43070
     273      444        3     0.26038    8.97493   17.25445   16.62392
     274      444        4    -0.73662   10.62724   15.42345   17.45533
     275      444        3     0.27419   11.39384   14.82929   17.43248
     276      444        3     0.26048   10.13384   15.46487   16.62422
     277      444        1     0.05534   18.96453    1.59639    9.98693
     278      444        1     0.13355   18.88128    0.89415   11.22840
     279      444        1     0.13301    0.22955   31.82615   11.22870
     280      444        1     0.05540    0.14649   31.12358    9.98723
     281      444        1     0.14033    0.11920   31.82938   18.63537
     282      444        1     0.14002   18.99219    0.89059   18.63537
     283      444        4    -0.75119    0.39150   31.13329   12.40252
     284      444        3     0.26094    0.65118   31.57243   13.22531
     285      444        3     0.27984    0.47384   30.16730   12.42566
     286      444        4    -0.75135   18.71783    1.58765   12.40133
     287      444        3     0.27953   18.64092    2.55396   12.42774
     288      444        3     0.26113   18.46563    1.14980   13.22710
     289      444        4    -0.73982   -0.08488   31.14526   17.46423
     290      444        3     0.26376   -0.22099   30.18510   17.43930
     291      444        3     0.26355   -0.29465   31.59541   16.63342
     292      444        4    -0.73937   19.19496    1.57438   17.46334
     293      444        3     0.26344   19.33650    2.53357   17.44079
     294      444        3     0.26349   19.41296    1.12165   16.63579
     295      444        1     0.06238   26.99887   15.70823    9.98693
     296      444        1     0.12886   27.62966   16.01663   11.23345
     297      444        1     0.12881   -8.52052   16.70463   11.23345
     298      444        1     0.06224   -7.88992   17.01271    9.98693
     299      444        1     0.12835   -8.52314   16.70916   18.63211
     300      444        1     0.12849   27.63191   16.01210   18.63211
     301      444        4    -0.69025   -7.93726   17.11271   12.40845
     302      444        3     0.26291   -8.39979   17.09621   13.25647
     303      444        3     0.24976   -7.09180   17.58551   12.43515
     304      444        4    -0.69014   27.04622   15.60758   12.40815
     305      444        3     0.24968   26.19926   15.13737   12.43634
     306      444        3     0.26281   27.50669   15.62765   13.25736
     307      444        4    -0.69001   -7.94793   17.13051   17.45829
     308      444        3     0.24967   -7.11070   17.61884   17.43396
     309      444        3     0.26281   -8.41850   17.11951   16.61413
     310      444        4    -0.69005   27.05651   15.58978   17.45859
     311      444        3     0.24962   26.21816   15.10404   17.43337
     312      444        3     0.26274   27.52390   15.60499   16.61265
     313      444        1     0.05795    0.06678   29.69385   19.88515
     314      444        1    -0.12129    1.23125   28.90262   29.65518
     315      444        1    -0.11985    1.15434   27.49716    0.05489
     316      444        1     0.05294   -0.08890   26.84152   20.01600
     317      444        1    -0.12855   -1.25112   27.64311   20.13291
     318      444        1    -0.10618   -1.17571   29.04792   20.06823
     319      444        2    -0.12915   -0.19256   25.45451   20.15160
     320      444        2    -0.14194    0.45105   24.55422   29.27420
     321      444        1     0.02579    0.31765   23.17012   29.39496
     322      444        1    -0.09807   -0.95346   22.54522   29.39348
     323      444        1    -0.02532   -1.08816   21.13556   29.40001
     324      444        1    -0.10252    0.08921   20.34788   29.38398
     325      444        1     0.01364    1.37660   20.93686   29.38754
     326      444        1    -0.07652    1.47128   22.34976   29.38042
     327      444        2    -0.16274    2.50872   20.12847   29.26708
     328      444        2    -0.15372    3.61312   20.24206   20.13914
     329      444        1     0.03486    4.76187   19.45794    0.22313
     330      444        1    -0.12288    6.03747   20.06537   20.10353
     331      444        1    -0.11144    4.70685   18.05087    0.06409
     332      444        1    -0.11166    5.88608   17.28067   29.66527
     333      444        1     0.04968    7.15383   17.89586   19.87714
     334      444        1    -0.11616    7.21652   19.29743   20.04004
     335      444        2    -0.18177   -2.35778   20.56244   29.29170
     336      444        2    -0.18132   -2.79257   19.51457   20.12698
     337      444        1    -0.00932   -4.05210   18.92657    0.21542
     338      444        1    -0.10241   -5.24405   19.69159   19.98247
     339      444        1    -0.10116   -4.16491   17.51593    0.17417
     340      444        1    -0.10966   -5.42536   16.88942    0.11157
     341      444        1    -0.01887   -6.61021   17.65768   19.87951
     342      444        1    -0.12054   -6.50581   19.06669   19.92046
     343      444        3     0.11473    2.14666   29.34694   29.54332
     344      444        3     0.11337    2.02267   26.95737    0.00119
     345      444        3     0.12395   -2.03339   29.59774   20.16970
     346      444        3     0.09099   -2.16729   27.20915   20.27800
     347      444        3     0.09959    2.39624   22.78923   29.32672
     348      444        3     0.11862   -1.79637   23.12773   29.35016
     349      444        3     0.12498    0.00810   19.32688   29.33324
     350      444        3     0.12873   -5.20558   20.71259   20.04478
     351      444        3     0.11880    6.12084   21.07795   20.23350
     352      444        3     0.11654    8.12202   19.76667   20.12846
     353      444        3     0.12523    5.81245   16.26420   29.56884
     354      444        3     0.10513    3.80546   17.56804    0.02403
     355      444        3     0.13672   -7.35002   19.64564   19.93055
     356      444        3     0.13713   -5.47262   15.86680    0.09614
     357      444        3     0.12464   -3.32687   16.92760    0.19821
     358      444        3     0.13811    3.63389   20.95660   20.83198
     359      444        3     0.13801    2.48420   19.42170   28.56682
     360      444        3     0.12625   -0.81604   25.11472   20.84978
     361      444        3     0.12624    1.06911   24.88657   28.56831
     362      444        3     0.15339   -2.16835   19.10261   20.78391
     363      444        3     0.15336   -2.98051   20.96922   28.63002
     364      444        1     0.05780   19.04349    3.02612   19.88485
     365      444        1    -0.12061   17.87921    3.81703   29.65429
     366      444        1    -0.11984   17.95537    5.22248    0.05489
     367      444        1     0.05294   19.19879    5.87845   20.01571
     368      444        1    -0.12853   20.36101    5.07750   20.13232
     369      444        1    -0.10673   20.28616    3.67237   20.06734
     370      444        2    -0.12919   19.30170    7.26546   20.15160
     371      444        2    -0.14202   18.65865    8.16543   29.27331
     372      444        1     0.02577   18.79149    9.54985   29.39378
     373      444        1    -0.09807   20.06260   10.17475   29.39318
     374      444        1    -0.02537   20.19786   11.58409   29.40119
     375      444        1    -0.10251   19.02012   12.37177   29.38576
     376      444        1     0.01365   17.73273   11.78279   29.38903
     377      444        1    -0.07653   17.63805   10.36989   29.37983
     378      444        2    -0.16274   16.60099   12.59118   29.26826
     379      444        2    -0.15366   15.49584   12.47823   20.13973
     380      444        1     0.03487   14.34727   13.26203    0.22373
     381      444        1    -0.12289   13.07167   12.65460   20.10383
     382      444        1    -0.11143   14.40230   14.66910    0.06439
     383      444        1    -0.11155   13.22325   15.43898   29.66587
     384      444        1     0.04965   11.95550   14.82379   19.87773
     385      444        1    -0.11629   11.89281   13.42222   20.04063
     386      444        2    -0.18170   21.46730   12.15753   29.29259
     387      444        2    -0.18130   21.90209   13.20540   20.12787
     388      444        1    -0.00935   23.16124   13.79340    0.21631
     389      444        1    -0.10238   24.35375   13.02870   19.98336
     390      444        1    -0.10115   23.27406   15.20404    0.17447
     391      444        1    -0.10985   24.53432   15.83088    0.11216
     392      444        1    -0.01876   25.71935   15.06294   19.87981
     393      444        1    -0.12032   25.61533   13.65392   19.92105