Created on Wed Jan 23 16:46:39 2019 

         441 atoms
           6 atom types
           0.000000  36.773000 xlo xhi
           0.000000  31.845919 ylo yhi
           0.000000  30.175400 zlo zhi
         -18.386250   0.000000   0.000000 xy xz yz

Masses

    1    12.010700000 # C_R
    2    14.006700000 # N_R
    3     1.007940000 # H_
    4    15.999400000 # O_R
    5    12.010700000 # C_3
    6    16.040000000 # CH4

Pair Coeffs

    1        0.095100        3.472990 # C_R C_R
    2        0.077400        3.262560 # N_R N_R
    3        0.015200        2.846421 # H_ H_
    4        0.095700        3.033154 # O_R O_R
    5        0.095100        3.472990 # C_3 C_3
    6        0.294106        3.730000 # CH4 CH4

Atoms

       1      444        1     0.25560   -1.39151   20.64730   29.97081
       2      444        2    -0.30693   -0.31756   19.81517   29.97262
       3      444        1     0.25199    0.96085   20.27025   29.97172
       4      444        2    -0.33731    1.14455   21.61637   29.97322
       5      444        1     0.24790    0.11123   22.49596   29.97141
       6      444        2    -0.30574   -1.14641   21.98196   29.97232
       7      444        1     0.07922    2.06367   19.37601   29.99465
       8      444        1    -0.14688    1.89027   17.97957   29.82476
       9      444        1    -0.09951    2.98923   17.10221   29.85675
      10      444        1     0.09676    4.29964   17.59551   30.04806
      11      444        1    -0.16680    4.47193   18.98558    0.06759
      12      444        1    -0.11607    3.37592   19.85975    0.03440
      13      444        1    -0.00570   -2.71737   20.13936   29.99314
      14      444        1    -0.10440   -2.95420   18.76043    0.03199
      15      444        1    -0.12242   -4.25909   18.24867    0.06518
      16      444        1    -0.02030   -5.37680   19.09290   30.04685
      17      444        1    -0.10100   -5.14916   20.47438   29.85614
      18      444        1    -0.10929   -3.83986   20.98742   29.82386
      19      444        1     0.08115    0.33390   23.89813   29.99435
      20      444        1    -0.13613   -0.74115   24.79268    0.03380
      21      444        1    -0.14719   -0.53245   26.17894    0.06639
      22      444        1     0.06232    0.75755   26.72478   30.04746
      23      444        1    -0.12596    1.84014   25.83691   29.85705
      24      444        1    -0.11701    1.63016   24.44652   29.82476
      25      444        3     0.12159   -4.37898   17.25125    0.26373
      26      444        3     0.13309   -2.18105   18.10855    0.18890
      27      444        3     0.14331   -5.93353   21.11830   29.71915
      28      444        3     0.13054   -3.72015   21.99215   29.66755
      29      444        3     0.13129   -1.69265   24.44907    0.18980
      30      444        3     0.12952   -1.33594   26.78146    0.26434
      31      444        3     0.13020    2.44008   23.84049   29.66785
      32      444        3     0.15149    2.78999   26.19422   29.71915
      33      444        3     0.13688    3.55409   20.85557    0.19101
      34      444        3     0.11824    5.39549   19.38015    0.26585
      35      444        3     0.14674    2.82374   16.10098   29.71885
      36      444        3     0.13106    0.96046   17.58118   29.66755
      37      444        1     0.37637   -6.69180   18.56617   30.10569
      38      444        1     0.37732    0.95889   28.12695   30.10539
      39      444        1     0.40571    5.41330   16.72006   30.10569
      40      444        4    -0.40581    5.22832   15.47425    0.43151
      41      444        4    -0.39501    2.13012   28.58936    0.43211
      42      444        4    -0.38844   -7.67787   19.34926    0.43272
      43      444        1     0.25720   19.55542   11.03875   30.13738
      44      444        2    -0.30536   18.46510   11.84891   30.13678
      45      444        1     0.25274   17.19514   11.36963   30.13828
      46      444        2    -0.33617   17.03903   10.02032   30.13708
      47      444        1     0.24913   18.08871    9.16016   30.13798
      48      444        2    -0.30597   19.33569    9.69963   30.13647
      49      444        1     0.07856   16.07468   12.24285   30.11716
      50      444        1    -0.14600   16.22766   13.64789    0.05009
      51      444        1    -0.09311   15.11290   14.50486    0.01750
      52      444        1     0.10412   13.80635   13.98195   30.06828
      53      444        1    -0.16628   13.65116   12.58264   29.94094
      54      444        1    -0.11196   14.76372   11.72949   29.96810
      55      444        1    -0.00596   20.87171   11.57281   30.11595
      56      444        1    -0.10197   21.08261   12.96479   29.96598
      57      444        1    -0.11988   22.37776   13.50171   29.93822
      58      444        1    -0.01522   23.51202   12.66767   30.06707
      59      444        1    -0.09598   23.31160   11.27473    0.01690
      60      444        1    -0.10846   22.01203   10.73781    0.04919
      61      444        1     0.08323   17.89307    7.75321   30.11656
      62      444        1    -0.13189   18.99312    6.87458   29.96719
      63      444        1    -0.15147   18.81017    5.48450   29.93973
      64      444        1     0.06285   17.52109    4.91924   30.06798
      65      444        1    -0.11336   16.41496    5.78927    0.01720
      66      444        1    -0.11361   16.59976    7.18317    0.04979
      67      444        3     0.11967   22.48018   14.51027   29.79428
      68      444        3     0.13330   20.29568   13.61063   29.86007
      69      444        3     0.14614   24.10938   10.63877    0.10923
      70      444        3     0.13126   21.91292    9.72479    0.15721
      71      444        3     0.13175   19.94592    7.23316   29.86067
      72      444        3     0.12589   19.63259    4.89185   29.79489
      73      444        3     0.12875   15.77200    7.77550    0.15752
      74      444        3     0.15641   15.46530    5.41635    0.10893
      75      444        3     0.13697   14.59768   10.72475   29.86188
      76      444        3     0.11073   12.72668   12.16673   29.79579
      77      444        3     0.14790   15.26478   15.51374    0.10863
      78      444        3     0.13182   17.15490   14.06857    0.15721
      79      444        1     0.35704   24.81636   13.21988   30.01879
      80      444        1     0.34922   17.34714    3.51356   30.01879
      81      444        1     0.38792   12.67595   14.83542   30.01879
      82      444        4    -0.41055   12.81864   16.05257   29.43972
      83      444        4    -0.40414   16.22151    3.02823   29.43972
      84      444        4    -0.40076   25.79967   12.48806   29.44003
      85      444        1     0.13353   10.30502   15.14210    0.19131
      86      444        1     0.15002    9.44637   15.41151    1.28336
      87      444        1     0.18800    8.20602   16.06754    1.07183
      88      444        1     0.12785    7.80097   16.42199    9.81968
      89      444        1    -0.16702    8.66624   16.15575    8.73819
      90      444        1    -0.10825    9.89169   15.50641    8.94791
      91      444        2    -0.21478    7.44942   16.36594    2.16388
      92      444        1     0.11493    7.79784   16.05353    3.44000
      93      444        1     0.02073    9.02293   15.38572    3.63855
      94      444        2    -0.28807    9.79773   15.10038    2.56159
      95      444        3     0.11424    9.34285   15.12777    4.57489
      96      444        3     0.15185   10.47620   15.28636    8.13680
      97      444        3     0.12276    8.39614   16.41211    7.78435
      98      444        5    -0.36739    6.91382   16.41084    4.56554
      99      444        3     0.15837    6.01270   16.91623    4.21068
     100      444        3     0.11323    7.43931   17.07897    5.25022
     101      444        3     0.12641    6.61669   15.50896    5.10387
     102      444        2    -0.52226    6.65108   17.11049    9.58129
     103      444        3     0.21788    6.73199   17.91301    9.03089
     104      444        2    -0.51985   11.47623   14.46760    0.37176
     105      444        3     0.24041   11.44276   13.68483    0.95384
     106      444        1     0.16209   18.26737    1.30696    0.19131
     107      444        1     0.18234   18.46281    0.42896    1.28366
     108      444        1     0.20636    0.12840   30.87239    1.07243
     109      444        1     0.16426    0.02414   30.34407    9.82028
     110      444        1    -0.12296   -0.17866   31.22652    8.73880
     111      444        1    -0.08542   18.15796    0.76653    8.94791
     112      444        2    -0.23287    0.24790   30.06860    2.16448
     113      444        1     0.11331    0.34425   30.52654    3.44090
     114      444        1     0.01394   18.69686    0.07579    3.63885
     115      444        2    -0.28160   18.55713    0.88914    2.56159
     116      444        3     0.12411   18.76030    0.48183    4.57489
     117      444        3     0.14785   18.05574    1.38243    8.13680
     118      444        3     0.12375   -0.26599   30.86379    7.78495
     119      444        5    -0.35413    0.47663   29.58263    4.56644
     120      444        3     0.15915    0.48949   28.54955    4.21188
     121      444        3     0.10843   -0.36455   29.70396    5.25112
     122      444        3     0.13799    1.40643   29.77593    5.10477
     123      444        2    -0.52139    0.00133   29.00399    9.58280
     124      444        3     0.19544   -0.73321   28.67311    9.03089
     125      444        2    -0.50632   18.26591    2.65850    0.37116
     126      444        3     0.21709   18.96092    3.02090    0.95324
     127      444        1     0.17079   26.26707   15.12044    0.19131
     128      444        1     0.14404   26.92936   15.72870    1.28396
     129      444        1     0.14489   -8.65476   16.47453    1.07243
     130      444        1     0.16595   -8.14509   16.64841    9.82058
     131      444        1    -0.15421   -8.80811   16.03187    8.73880
     132      444        1    -0.12071   26.78980   15.29591    8.94821
     133      444        2    -0.19274   -8.01840   16.97993    2.16478
     134      444        1     0.10362   -8.46317   16.83439    3.44090
     135      444        1    -0.00881   27.11819   16.10798    3.63885
     136      444        2    -0.26760   26.48385   15.57998    2.56189
     137      444        3     0.12758   26.73483   15.95990    4.57519
     138      444        3     0.15377   26.30715   14.89943    8.13680
     139      444        3     0.12054   -8.45031   16.13760    7.78525
     140      444        5    -0.34757   -7.71171   17.42067    4.56675
     141      444        3     0.14807   -6.82364   17.94804    4.21218
     142      444        3     0.10919   -7.39657   16.63153    5.25142
     143      444        3     0.13202   -8.34420   18.12956    5.10507
     144      444        2    -0.45739   -6.97331   17.29838    9.58280
     145      444        3     0.19584   -6.31931   16.82738    9.03089
     146      444        2    -0.45090   25.09695   14.44340    0.37116
     147      444        3     0.21465   24.43541   14.86376    0.95294
     148      444        1     0.25560   -1.39151   20.64730    9.85378
     149      444        2    -0.30693   -0.31756   19.81517    9.85559
     150      444        1     0.25199    0.96085   20.27025    9.85498
     151      444        2    -0.33731    1.14455   21.61637    9.85619
     152      444        1     0.24790    0.11123   22.49596    9.85438
     153      444        2    -0.30574   -1.14641   21.98196    9.85529
     154      444        1     0.07922    2.06367   19.37601    9.87792
     155      444        1    -0.14690    1.89027   17.97957    9.70773
     156      444        1    -0.09948    2.98923   17.10221    9.74002
     157      444        1     0.09676    4.29964   17.59551    9.93103
     158      444        1    -0.16680    4.47193   18.98558   10.12596
     159      444        1    -0.11606    3.37592   19.85975   10.09277
     160      444        1    -0.00570   -2.71737   20.13936    9.87641
     161      444        1    -0.10440   -2.95420   18.76043   10.09065
     162      444        1    -0.12242   -4.25909   18.24867   10.12354
     163      444        1    -0.02030   -5.37680   19.09290    9.92982
     164      444        1    -0.10098   -5.14916   20.47438    9.73941
     165      444        1    -0.10930   -3.83986   20.98742    9.70682
     166      444        1     0.08115    0.33390   23.89813    9.87762
     167      444        1    -0.13614   -0.74115   24.79268   10.09246
     168      444        1    -0.14719   -0.53245   26.17894   10.12505
     169      444        1     0.06233    0.75755   26.72478    9.93072
     170      444        1    -0.12594    1.84014   25.83691    9.74032
     171      444        1    -0.11702    1.63016   24.44652    9.70773
     172      444        3     0.12159   -4.37898   17.25125   10.32240
     173      444        3     0.13309   -2.18105   18.10855   10.24726
     174      444        3     0.14330   -5.93353   21.11830    9.60211
     175      444        3     0.13054   -3.72015   21.99215    9.55051
     176      444        3     0.13130   -1.69265   24.44907   10.24817
     177      444        3     0.12953   -1.33594   26.78146   10.32300
     178      444        3     0.13020    2.44008   23.84049    9.55082
     179      444        3     0.15147    2.78999   26.19422    9.60211
     180      444        3     0.13688    3.55409   20.85557   10.24968
     181      444        3     0.11823    5.39549   19.38015   10.32421
     182      444        3     0.14674    2.82374   16.10098    9.60181
     183      444        3     0.13107    0.96046   17.58118    9.55082
     184      444        1     0.37637   -6.69180   18.56617    9.98866
     185      444        1     0.37732    0.95889   28.12695    9.98866
     186      444        1     0.40571    5.41330   16.72006    9.98866
     187      444        4    -0.40581    5.22832   15.47425   10.48987
     188      444        4    -0.39501    2.13012   28.58936   10.49078
     189      444        4    -0.38844   -7.67787   19.34926   10.49108
     190      444        1     0.25720   19.55542   11.03875   10.02065
     191      444        2    -0.30536   18.46510   11.84891   10.01974
     192      444        1     0.25274   17.19514   11.36963   10.02125
     193      444        2    -0.33617   17.03903   10.02032   10.02004
     194      444        1     0.24913   18.08871    9.16016   10.02095
     195      444        2    -0.30597   19.33569    9.69963   10.01944
     196      444        1     0.07856   16.07468   12.24285   10.00043
     197      444        1    -0.14600   16.22766   13.64789   10.10846
     198      444        1    -0.09310   15.11290   14.50486   10.07587
     199      444        1     0.10411   13.80635   13.98195    9.95155
     200      444        1    -0.16627   13.65116   12.58264    9.82390
     201      444        1    -0.11196   14.76372   11.72949    9.85106
     202      444        1    -0.00595   20.87171   11.57281    9.99892
     203      444        1    -0.10197   21.08261   12.96479    9.84895
     204      444        1    -0.11988   22.37776   13.50171    9.82119
     205      444        1    -0.01523   23.51202   12.66767    9.95034
     206      444        1    -0.09597   23.31160   11.27473   10.07526
     207      444        1    -0.10846   22.01203   10.73781   10.10785
     208      444        1     0.08323   17.89307    7.75321    9.99983
     209      444        1    -0.13188   18.99312    6.87458    9.85046
     210      444        1    -0.15148   18.81017    5.48450    9.82270
     211      444        1     0.06285   17.52109    4.91924    9.95094
     212      444        1    -0.11337   16.41496    5.78927   10.07587
     213      444        1    -0.11360   16.59976    7.18317   10.10816
     214      444        3     0.11967   22.48018   14.51027    9.67755
     215      444        3     0.13330   20.29568   13.61063    9.74333
     216      444        3     0.14614   24.10938   10.63877   10.16760
     217      444        3     0.13126   21.91292    9.72479   10.21588
     218      444        3     0.13176   19.94592    7.23316    9.74394
     219      444        3     0.12588   19.63259    4.89185    9.67785
     220      444        3     0.12875   15.77200    7.77550   10.21588
     221      444        3     0.15643   15.46530    5.41635   10.16730
     222      444        3     0.13697   14.59768   10.72475    9.74515
     223      444        3     0.11074   12.72668   12.16673    9.67906
     224      444        3     0.14790   15.26478   15.51374   10.16700
     225      444        3     0.13182   17.15490   14.06857   10.21558
     226      444        1     0.35706   24.81636   13.21988    9.90176
     227      444        1     0.34922   17.34714    3.51356    9.90176
     228      444        1     0.38790   12.67595   14.83542    9.90206
     229      444        4    -0.41054   12.81864   16.05257    9.32269
     230      444        4    -0.40414   16.22151    3.02823    9.32299
     231      444        4    -0.40078   25.79967   12.48806    9.32329
     232      444        1     0.13353   10.30502   15.14210   10.24968
     233      444        1     0.15004    9.44637   15.41151   11.34203
     234      444        1     0.18798    8.20602   16.06754   11.13020
     235      444        1     0.12785    7.80097   16.42199   19.87804
     236      444        1    -0.16702    8.66624   16.15575   18.79656
     237      444        1    -0.10824    9.89169   15.50641   19.00628
     238      444        2    -0.21477    7.44942   16.36594   12.22224
     239      444        1     0.11488    7.79784   16.05353   13.49866
     240      444        1     0.02076    9.02293   15.38572   13.69692
     241      444        2    -0.28809    9.79773   15.10038   12.62026
     242      444        3     0.11425    9.34285   15.12777   14.63326
     243      444        3     0.15186   10.47620   15.28636   18.19516
     244      444        3     0.12275    8.39614   16.41211   17.84271
     245      444        5    -0.36734    6.91382   16.41084   14.62390
     246      444        3     0.15837    6.01270   16.91623   14.26904
     247      444        3     0.11321    7.43931   17.07897   15.30889
     248      444        3     0.12640    6.61669   15.50896   15.16223
     249      444        2    -0.52227    6.65108   17.11049   19.63966
     250      444        3     0.21789    6.73199   17.91301   19.08926
     251      444        2    -0.51985   11.47623   14.46760   10.43043
     252      444        3     0.24041   11.44276   13.68483   11.01251
     253      444        1     0.16209   18.26737    1.30696   10.24968
     254      444        1     0.18233   18.46281    0.42896   11.34203
     255      444        1     0.20636    0.12840   30.87239   11.13080
     256      444        1     0.16428    0.02414   30.34407   19.87895
     257      444        1    -0.12300   -0.17866   31.22652   18.79716
     258      444        1    -0.08537   18.15796    0.76653   19.00658
     259      444        2    -0.23286    0.24790   30.06860   12.22315
     260      444        1     0.11333    0.34425   30.52654   13.49927
     261      444        1     0.01399   18.69686    0.07579   13.69722
     262      444        2    -0.28157   18.55713    0.88914   12.62026
     263      444        3     0.12409   18.76030    0.48183   14.63356
     264      444        3     0.14784   18.05574    1.38243   18.19516
     265      444        3     0.12378   -0.26599   30.86379   17.84362
     266      444        5    -0.35412    0.47663   29.58263   14.62481
     267      444        3     0.15915    0.48949   28.54955   14.27025
     268      444        3     0.10843   -0.36455   29.70396   15.30949
     269      444        3     0.13799    1.40643   29.77593   15.16314
     270      444        2    -0.52140    0.00133   29.00399   19.64117
     271      444        3     0.19544   -0.73321   28.67311   19.08926
     272      444        2    -0.50633   18.26591    2.65850   10.42983
     273      444        3     0.21712   18.96092    3.02090   11.01161
     274      444        1     0.17081   26.26707   15.12044   10.24998
     275      444        1     0.14404   26.92936   15.72870   11.34233
     276      444        1     0.14490   -8.65476   16.47453   11.13110
     277      444        1     0.16593   -8.14509   16.64841   19.87895
     278      444        1    -0.15419   -8.80811   16.03187   18.79746
     279      444        1    -0.12071   26.78980   15.29591   19.00658
     280      444        2    -0.19274   -8.01840   16.97993   12.22345
     281      444        1     0.10360   -8.46317   16.83439   13.49957
     282      444        1    -0.00885   27.11819   16.10798   13.69752
     283      444        2    -0.26759   26.48385   15.57998   12.62026
     284      444        3     0.12760   26.73483   15.95990   14.63356
     285      444        3     0.15377   26.30715   14.89943   18.19516
     286      444        3     0.12051   -8.45031   16.13760   17.84362
     287      444        5    -0.34756   -7.71171   17.42067   14.62511
     288      444        3     0.14807   -6.82364   17.94804   14.27055
     289      444        3     0.10918   -7.39657   16.63153   15.30979
     290      444        3     0.13201   -8.34420   18.12956   15.16344
     291      444        2    -0.45732   -6.97331   17.29838   19.64147
     292      444        3     0.19579   -6.31931   16.82738   19.08926
     293      444        2    -0.45090   25.09695   14.44340   10.42983
     294      444        3     0.21466   24.43541   14.86376   11.01161
     295      444        1     0.25560   -1.39151   20.64730   19.91244
     296      444        2    -0.30693   -0.31756   19.81517   19.91426
     297      444        1     0.25199    0.96085   20.27025   19.91335
     298      444        2    -0.33731    1.14455   21.61637   19.91486
     299      444        1     0.24790    0.11123   22.49596   19.91305
     300      444        2    -0.30575   -1.14641   21.98196   19.91395
     301      444        1     0.07922    2.06367   19.37601   19.93628
     302      444        1    -0.14690    1.89027   17.97957   19.76609
     303      444        1    -0.09950    2.98923   17.10221   19.79838
     304      444        1     0.09675    4.29964   17.59551   19.98939
     305      444        1    -0.16680    4.47193   18.98558   20.18433
     306      444        1    -0.11606    3.37592   19.85975   20.15143
     307      444        1    -0.00570   -2.71737   20.13936   19.93477
     308      444        1    -0.10441   -2.95420   18.76043   20.14902
     309      444        1    -0.12242   -4.25909   18.24867   20.18191
     310      444        1    -0.02030   -5.37680   19.09290   19.98818
     311      444        1    -0.10098   -5.14916   20.47438   19.79778
     312      444        1    -0.10930   -3.83986   20.98742   19.76519
     313      444        1     0.08115    0.33390   23.89813   19.93598
     314      444        1    -0.13614   -0.74115   24.79268   20.15083
     315      444        1    -0.14719   -0.53245   26.17894   20.18342
     316      444        1     0.06233    0.75755   26.72478   19.98909
     317      444        1    -0.12594    1.84014   25.83691   19.79868
     318      444        1    -0.11702    1.63016   24.44652   19.76609
     319      444        3     0.12159   -4.37898   17.25125   20.38077
     320      444        3     0.13310   -2.18105   18.10855   20.30563
     321      444        3     0.14330   -5.93353   21.11830   19.66048
     322      444        3     0.13054   -3.72015   21.99215   19.60888
     323      444        3     0.13130   -1.69265   24.44907   20.30654
     324      444        3     0.12953   -1.33594   26.78146   20.38137
     325      444        3     0.13020    2.44008   23.84049   19.60918
     326      444        3     0.15147    2.78999   26.19422   19.66048
     327      444        3     0.13688    3.55409   20.85557   20.30804
     328      444        3     0.11824    5.39549   19.38015   20.38288
     329      444        3     0.14674    2.82374   16.10098   19.66048
     330      444        3     0.13107    0.96046   17.58118   19.60918
     331      444        1     0.37635   -6.69180   18.56617   20.04703
     332      444        1     0.37732    0.95889   28.12695   20.04703
     333      444        1     0.40569    5.41330   16.72006   20.04703
     334      444        4    -0.40580    5.22832   15.47425   20.54854
     335      444        4    -0.39501    2.13012   28.58936   20.54915
     336      444        4    -0.38844   -7.67787   19.34926   20.54945
     337      444        1     0.25719   19.55542   11.03875   20.07901
     338      444        2    -0.30536   18.46510   11.84891   20.07811
     339      444        1     0.25274   17.19514   11.36963   20.07992
     340      444        2    -0.33617   17.03903   10.02032   20.07841
     341      444        1     0.24913   18.08871    9.16016   20.07962
     342      444        2    -0.30597   19.33569    9.69963   20.07781
     343      444        1     0.07856   16.07468   12.24285   20.05880
     344      444        1    -0.14599   16.22766   13.64789   20.16682
     345      444        1    -0.09312   15.11290   14.50486   20.13454
     346      444        1     0.10411   13.80635   13.98195   20.00991
     347      444        1    -0.16627   13.65116   12.58264   19.88227
     348      444        1    -0.11196   14.76372   11.72949   19.90943
     349      444        1    -0.00596   20.87171   11.57281   20.05759
     350      444        1    -0.10197   21.08261   12.96479   19.90762
     351      444        1    -0.11988   22.37776   13.50171   19.87955
     352      444        1    -0.01522   23.51202   12.66767   20.00870
     353      444        1    -0.09599   23.31160   11.27473   20.13393
     354      444        1    -0.10846   22.01203   10.73781   20.16622
     355      444        1     0.08323   17.89307    7.75321   20.05819
     356      444        1    -0.13188   18.99312    6.87458   19.90882
     357      444        1    -0.15148   18.81017    5.48450   19.88106
     358      444        1     0.06285   17.52109    4.91924   20.00961
     359      444        1    -0.11336   16.41496    5.78927   20.13423
     360      444        1    -0.11361   16.59976    7.18317   20.16682
     361      444        3     0.11967   22.48018   14.51027   19.73592
     362      444        3     0.13330   20.29568   13.61063   19.80170
     363      444        3     0.14615   24.10938   10.63877   20.22597
     364      444        3     0.13126   21.91292    9.72479   20.27425
     365      444        3     0.13176   19.94592    7.23316   19.80230
     366      444        3     0.12588   19.63259    4.89185   19.73652
     367      444        3     0.12875   15.77200    7.77550   20.27425
     368      444        3     0.15642   15.46530    5.41635   20.22597
     369      444        3     0.13697   14.59768   10.72475   19.80351
     370      444        3     0.11074   12.72668   12.16673   19.73743
     371      444        3     0.14791   15.26478   15.51374   20.22536
     372      444        3     0.13182   17.15490   14.06857   20.27425
     373      444        1     0.35705   24.81636   13.21988   19.96042
     374      444        1     0.34922   17.34714    3.51356   19.96012
     375      444        1     0.38790   12.67595   14.83542   19.96042
     376      444        4    -0.41054   12.81864   16.05257   19.38106
     377      444        4    -0.40414   16.22151    3.02823   19.38136
     378      444        4    -0.40076   25.79967   12.48806   19.38166
     379      444        1     0.13354   10.30502   15.14210   20.30835
     380      444        1     0.15003    9.44637   15.41151   21.40039
     381      444        1     0.18799    8.20602   16.06754   21.18856
     382      444        1     0.12784    7.80097   16.42199   29.93641
     383      444        1    -0.16702    8.66624   16.15575   28.85492
     384      444        1    -0.10828    9.89169   15.50641   29.06464
     385      444        2    -0.21476    7.44942   16.36594   22.28061
     386      444        1     0.11487    7.79784   16.05353   23.55703
     387      444        1     0.02076    9.02293   15.38572   23.75528
     388      444        2    -0.28810    9.79773   15.10038   22.67862
     389      444        3     0.11426    9.34285   15.12777   24.69162
     390      444        3     0.15188   10.47620   15.28636   28.25383
     391      444        3     0.12275    8.39614   16.41211   27.90108
     392      444        5    -0.36743    6.91382   16.41084   24.68257
     393      444        3     0.15838    6.01270   16.91623   24.32741
     394      444        3     0.11324    7.43931   17.07897   25.36725
     395      444        3     0.12644    6.61669   15.50896   25.22060
     396      444        2    -0.52221    6.65108   17.11049   29.69833
     397      444        3     0.21785    6.73199   17.91301   29.14763
     398      444        2    -0.51986   11.47623   14.46760   20.48879
     399      444        3     0.24041   11.44276   13.68483   21.07088
     400      444        1     0.16210   18.26737    1.30696   20.30835
     401      444        1     0.18234   18.46281    0.42896   21.40070
     402      444        1     0.20635    0.12840   30.87239   21.18917
     403      444        1     0.16428    0.02414   30.34407   29.93732
     404      444        1    -0.12298   -0.17866   31.22652   28.85553
     405      444        1    -0.08540   18.15796    0.76653   29.06495
     406      444        2    -0.23288    0.24790   30.06860   22.28152